
 displacements (vx,vy,vz) for set NALL and time  0.5000000E-05

         1  0.000000E+00  0.000000E+00  0.000000E+00
         2  0.000000E+00  0.000000E+00  0.000000E+00
         3  0.000000E+00  0.000000E+00  0.000000E+00
         4  0.000000E+00  0.000000E+00  0.000000E+00
         5  3.840525E-05 -1.412816E-02 -2.942801E-03
         6 -3.840525E-05 -1.412816E-02 -2.942801E-03
         7  3.815174E-05 -1.413988E-02  2.901857E-03
         8 -3.815174E-05 -1.413988E-02  2.901857E-03
         9  0.000000E+00  0.000000E+00  0.000000E+00
        10  0.000000E+00  0.000000E+00  0.000000E+00
        11  0.000000E+00  0.000000E+00  0.000000E+00
        12  0.000000E+00  0.000000E+00  0.000000E+00
        13  0.000000E+00  0.000000E+00  0.000000E+00
        14  0.000000E+00  0.000000E+00  0.000000E+00
        15  0.000000E+00  0.000000E+00  0.000000E+00
        16  0.000000E+00  0.000000E+00  0.000000E+00
        17  0.000000E+00  0.000000E+00  0.000000E+00
        18  0.000000E+00  0.000000E+00  0.000000E+00
        19  0.000000E+00  0.000000E+00  0.000000E+00
        20  0.000000E+00  0.000000E+00  0.000000E+00
        21  1.846383E-05 -1.408008E-02 -2.949809E-03
        22 -6.414505E-20 -1.407015E-02 -2.944902E-03
        23 -1.846383E-05 -1.408008E-02 -2.949809E-03
        24 -9.976979E-06 -1.407135E-02 -1.440564E-03
        25 -5.587785E-08 -1.404436E-02 -2.041211E-05
        26  9.814342E-06 -1.407685E-02  1.399522E-03
        27  1.835224E-05 -1.409183E-02  2.908922E-03
        28  8.160988E-19 -1.408182E-02  2.904032E-03
        29 -1.835224E-05 -1.409183E-02  2.908922E-03
        30 -9.814342E-06 -1.407685E-02  1.399522E-03
        31  5.587785E-08 -1.404436E-02 -2.041211E-05
        32  9.976979E-06 -1.407135E-02 -1.440564E-03
        33 -1.721909E-05  1.484545E-04  8.654367E-05
        34  1.261960E-05  3.268929E-04  9.984207E-05
        35  3.914476E-05  4.761282E-04  9.277294E-06
        36  6.326983E-05  5.208860E-04 -1.592887E-04
        37  8.032002E-05  4.122225E-04 -3.986385E-04
        38  9.385445E-05  1.031120E-04 -6.873841E-04
        39  9.868757E-05 -4.355536E-04 -1.008411E-03
        40  9.902959E-05 -1.218569E-03 -1.338946E-03
        41  9.205781E-05 -2.238631E-03 -1.656522E-03
        42  8.287020E-05 -3.477129E-03 -1.950425E-03
        43  7.111078E-05 -4.906706E-03 -2.208549E-03
        44  6.038631E-05 -6.497408E-03 -2.433673E-03
        45  5.292996E-05 -8.221447E-03 -2.623903E-03
        46  4.363584E-05 -1.007127E-02 -2.775870E-03
        47  1.308051E-05 -1.203615E-02 -2.882621E-03
        48 -1.308051E-05 -1.203615E-02 -2.882621E-03
        49 -4.363584E-05 -1.007127E-02 -2.775870E-03
        50 -5.292996E-05 -8.221447E-03 -2.623903E-03
        51 -6.038631E-05 -6.497408E-03 -2.433673E-03
        52 -7.111078E-05 -4.906706E-03 -2.208549E-03
        53 -8.287020E-05 -3.477129E-03 -1.950425E-03
        54 -9.205781E-05 -2.238631E-03 -1.656522E-03
        55 -9.902959E-05 -1.218569E-03 -1.338946E-03
        56 -9.868757E-05 -4.355536E-04 -1.008411E-03
        57 -9.385445E-05  1.031120E-04 -6.873841E-04
        58 -8.032002E-05  4.122225E-04 -3.986385E-04
        59 -6.326983E-05  5.208860E-04 -1.592887E-04
        60 -3.914476E-05  4.761282E-04  9.277294E-06
        61 -1.261960E-05  3.268929E-04  9.984207E-05
        62  1.721909E-05  1.484545E-04  8.654367E-05
        63  1.707529E-05  1.482587E-04 -8.614843E-05
        64 -1.276095E-05  3.266577E-04 -9.904599E-05
        65 -3.928462E-05  4.758977E-04 -8.068103E-06
        66 -6.340641E-05  5.205903E-04  1.608889E-04
        67 -8.043244E-05  4.117277E-04  4.005246E-04
        68 -9.397165E-05  1.021735E-04  6.893043E-04
        69 -9.877561E-05 -4.372197E-04  1.009906E-03
        70 -9.913274E-05 -1.221257E-03  1.339334E-03
        71 -9.213764E-05 -2.242544E-03  1.654940E-03
        72 -8.295741E-05 -3.482417E-03  1.945890E-03
        73 -7.118161E-05 -4.913373E-03  2.200062E-03
        74 -6.046046E-05 -6.505436E-03  2.420277E-03
        75 -5.301208E-05 -8.230712E-03  2.604720E-03
        76 -4.375767E-05 -1.008156E-02  2.750070E-03
        77 -1.318842E-05 -1.204714E-02  2.849649E-03
        78 -1.707529E-05  1.482587E-04 -8.614843E-05
        79  1.276095E-05  3.266577E-04 -9.904599E-05
        80  3.928462E-05  4.758977E-04 -8.068103E-06
        81  6.340641E-05  5.205903E-04  1.608889E-04
        82  8.043244E-05  4.117277E-04  4.005246E-04
        83  9.397165E-05  1.021735E-04  6.893043E-04
        84  9.877561E-05 -4.372197E-04  1.009906E-03
        85  9.913274E-05 -1.221257E-03  1.339334E-03
        86  9.213764E-05 -2.242544E-03  1.654940E-03
        87  8.295741E-05 -3.482417E-03  1.945890E-03
        88  7.118161E-05 -4.913373E-03  2.200062E-03
        89  6.046046E-05 -6.505436E-03  2.420277E-03
        90  5.301208E-05 -8.230712E-03  2.604720E-03
        91  4.375767E-05 -1.008156E-02  2.750070E-03
        92  1.318842E-05 -1.204714E-02  2.849649E-03
        93  0.000000E+00  0.000000E+00  0.000000E+00
        94  0.000000E+00  0.000000E+00  0.000000E+00
        95  0.000000E+00  0.000000E+00  0.000000E+00
        96  0.000000E+00  0.000000E+00  0.000000E+00
        97  0.000000E+00  0.000000E+00  0.000000E+00
        98  7.567149E-19 -1.403684E-02 -1.450718E-03
        99  2.744509E-08 -1.402519E-02 -2.039754E-05
       100  1.736904E-18 -1.401914E-02 -2.039329E-05
       101 -2.744509E-08 -1.402519E-02 -2.039754E-05
       102  1.791710E-18 -1.404240E-02  1.409803E-03
       103  1.468364E-19  1.538821E-04  8.919063E-05
       104 -6.318424E-06  3.259803E-04  1.086647E-04
       105  3.185873E-19  3.243660E-04  1.103102E-04
       106  6.318424E-06  3.259803E-04  1.086647E-04
       107  3.584430E-19  4.629837E-04  1.749895E-05
       108 -3.165139E-05  5.039844E-04 -1.535668E-04
       109  3.194423E-19  4.991137E-04 -1.525887E-04
       110  3.165139E-05  5.039844E-04 -1.535668E-04
       111  8.694491E-20  3.845780E-04 -3.935242E-04
       112 -4.693045E-05  7.906860E-05 -6.847120E-04
       113 -2.010696E-19  7.132010E-05 -6.843807E-04
       114  4.693045E-05  7.906860E-05 -6.847120E-04
       115 -6.310104E-19 -4.691517E-04 -1.007585E-03
       116 -4.953623E-05 -1.243877E-03 -1.339972E-03
       117 -1.203423E-18 -1.252049E-03 -1.340014E-03
       118  4.953623E-05 -1.243877E-03 -1.339972E-03
       119 -9.313717E-19 -2.269793E-03 -1.659223E-03
       120 -4.139192E-05 -3.498292E-03 -1.953573E-03
       121 -3.990670E-19 -3.504972E-03 -1.953949E-03
       122  4.139192E-05 -3.498292E-03 -1.953573E-03
       123 -1.028827E-18 -4.930297E-03 -2.212116E-03
       124 -3.020541E-05 -6.511021E-03 -2.436214E-03
       125 -1.064671E-18 -6.516775E-03 -2.436632E-03
       126  3.020541E-05 -6.511021E-03 -2.436214E-03
       127 -1.232186E-18 -8.240448E-03 -2.627498E-03
       128 -2.159545E-05 -1.008699E-02 -2.780899E-03
       129 -2.030974E-18 -1.008583E-02 -2.782366E-03
       130  2.159545E-05 -1.008699E-02 -2.780899E-03
       131 -1.382318E-18 -1.203881E-02 -2.891143E-03
       132 -7.097210E-08  1.469913E-04  1.802383E-07
       133  7.868328E-06  3.347678E-04  1.664636E-05
       134 -7.117660E-08  3.422975E-04  3.733857E-07
       135 -8.007985E-06  3.346630E-04 -1.588828E-05
       136 -5.659696E-08  5.010449E-04  5.646677E-07
       137  3.009811E-05  5.548196E-04 -1.013628E-04
       138 -4.186263E-08  5.636114E-04  7.623977E-07
       139 -3.019977E-05  5.546541E-04  1.029087E-04
       140 -1.642663E-08  4.667281E-04  9.252052E-07
       141  4.595735E-05  1.531448E-04 -3.534488E-04
       142 -5.905389E-09  1.679695E-04  9.901764E-07
       143 -4.600572E-05  1.526320E-04  3.554175E-04
       144  1.237308E-08 -3.682389E-04  8.322749E-07
       145  4.856407E-05 -1.165428E-03 -6.659000E-04
       146  7.604785E-09 -1.149934E-03  3.364072E-07
       147 -4.859024E-05 -1.166785E-03  6.665066E-04
       148  1.311674E-08 -2.175062E-03 -6.112954E-07
       149  4.106073E-05 -3.433125E-03 -9.652628E-04
       150  2.024325E-09 -3.419635E-03 -2.072581E-06
       151 -4.108678E-05 -3.435726E-03  9.610212E-04
       152  1.888810E-09 -4.856374E-03 -4.049566E-06
       153  3.061920E-05 -6.463796E-03 -1.207786E-03
       154 -1.027414E-08 -6.454903E-03 -6.516466E-06
       155 -3.066169E-05 -6.467739E-03  1.194655E-03
       156 -2.848653E-08 -8.191680E-03 -9.437366E-06
       157  1.849142E-05 -1.005682E-02 -1.378336E-03
       158 -4.915138E-08 -1.005022E-02 -1.277635E-05
       159 -1.859259E-05 -1.006183E-02  1.352751E-03
       160 -4.226552E-08 -1.202868E-02 -1.651171E-05
       161  5.117712E-20  1.536843E-04 -8.882392E-05
       162 -6.389253E-06  3.257372E-04 -1.078639E-04
       163  8.321644E-20  3.241189E-04 -1.095017E-04
       164  6.389253E-06  3.257372E-04 -1.078639E-04
       165 -1.893780E-20  4.627420E-04 -1.627352E-05
       166 -3.171746E-05  5.036743E-04  1.551807E-04
       167 -1.920476E-19  4.988019E-04  1.542049E-04
       168  3.171746E-05  5.036743E-04  1.551807E-04
       169 -5.564999E-19  3.840624E-04  3.954031E-04
       170 -4.698371E-05  7.810453E-05  6.866022E-04
       171 -9.545219E-19  7.035326E-05  6.862608E-04
       172  4.698371E-05  7.810453E-05  6.866022E-04
       173 -1.296140E-18 -4.708515E-04  1.008998E-03
       174 -4.958203E-05 -1.246602E-03  1.340267E-03
       175 -1.284600E-18 -1.254778E-03  1.340280E-03
       176  4.958203E-05 -1.246602E-03  1.340267E-03
       177 -1.407119E-18 -2.273754E-03  1.657498E-03
       178 -4.143172E-05 -3.503625E-03  1.948921E-03
       179 -1.560568E-18 -3.510310E-03  1.949259E-03
       180  4.143172E-05 -3.503625E-03  1.948921E-03
       181 -1.827563E-18 -4.937008E-03  2.203481E-03
       182 -3.024112E-05 -6.519079E-03  2.422714E-03
       183 -1.977967E-18 -6.524836E-03  2.423098E-03
       184  3.024112E-05 -6.519079E-03  2.422714E-03
       185 -1.830069E-19 -8.249750E-03  2.608173E-03
       186 -2.165345E-05 -1.009732E-02  2.755008E-03
       187  9.185172E-19 -1.009618E-02  2.756464E-03
       188  2.165345E-05 -1.009732E-02  2.755008E-03
       189  1.394226E-18 -1.204988E-02  2.858063E-03
       190  7.097210E-08  1.469913E-04  1.802383E-07
       191  8.007985E-06  3.346630E-04 -1.588828E-05
       192  7.117660E-08  3.422975E-04  3.733857E-07
       193 -7.868328E-06  3.347678E-04  1.664636E-05
       194  5.659696E-08  5.010449E-04  5.646677E-07
       195  3.019977E-05  5.546541E-04  1.029087E-04
       196  4.186263E-08  5.636114E-04  7.623977E-07
       197 -3.009811E-05  5.548196E-04 -1.013628E-04
       198  1.642663E-08  4.667281E-04  9.252052E-07
       199  4.600572E-05  1.526320E-04  3.554175E-04
       200  5.905389E-09  1.679695E-04  9.901764E-07
       201 -4.595735E-05  1.531448E-04 -3.534488E-04
       202 -1.237308E-08 -3.682389E-04  8.322749E-07
       203  4.859024E-05 -1.166785E-03  6.665066E-04
       204 -7.604785E-09 -1.149934E-03  3.364072E-07
       205 -4.856407E-05 -1.165428E-03 -6.659000E-04
       206 -1.311674E-08 -2.175062E-03 -6.112954E-07
       207  4.108678E-05 -3.435726E-03  9.610212E-04
       208 -2.024325E-09 -3.419635E-03 -2.072581E-06
       209 -4.106073E-05 -3.433125E-03 -9.652628E-04
       210 -1.888810E-09 -4.856374E-03 -4.049566E-06
       211  3.066169E-05 -6.467739E-03  1.194655E-03
       212  1.027414E-08 -6.454903E-03 -6.516466E-06
       213 -3.061920E-05 -6.463796E-03 -1.207786E-03
       214  2.848653E-08 -8.191680E-03 -9.437366E-06
       215  1.859259E-05 -1.006183E-02  1.352751E-03
       216  4.915138E-08 -1.005022E-02 -1.277635E-05
       217 -1.849142E-05 -1.005682E-02 -1.378336E-03
       218  4.226552E-08 -1.202868E-02 -1.651171E-05
       219  4.483813E-20  1.499269E-04  1.665402E-07
       220  1.588604E-19  3.307286E-04  2.397097E-05
       221  3.602601E-08  3.393047E-04  3.765815E-07
       222  8.276624E-20  3.373744E-04  3.801165E-07
       223 -3.602601E-08  3.393047E-04  3.765815E-07
       224  8.137560E-20  3.306191E-04 -2.320020E-05
       225  8.977322E-20  4.884513E-04  5.735174E-07
       226  1.065803E-19  5.341042E-04 -9.649041E-05
       227  2.026915E-08  5.483885E-04  7.697207E-07
       228 -2.934271E-20  5.435329E-04  7.704067E-07
       229 -2.026915E-08  5.483885E-04  7.697207E-07
       230 -1.113466E-19  5.339275E-04  9.805101E-05
       231 -2.197115E-19  4.409064E-04  9.223063E-07
       232 -2.817700E-19  1.223054E-04 -3.511811E-04
       233  9.368559E-10  1.452898E-04  9.763674E-07
       234 -4.524683E-19  1.378014E-04  9.712699E-07
       235 -9.368559E-10  1.452898E-04  9.763674E-07
       236 -6.333675E-19  1.217712E-04  3.531106E-04
       237 -6.569389E-19 -4.002124E-04  7.931771E-07
       238 -6.475758E-19 -1.198067E-03 -6.667762E-04
       239 -6.084763E-09 -1.174007E-03  2.928138E-07
       240 -9.347876E-19 -1.181953E-03  2.788195E-07
       241  6.084763E-09 -1.174007E-03  2.928138E-07
       242 -8.579329E-19 -1.199457E-03  6.672651E-04
       243 -1.048055E-18 -2.205192E-03 -6.802126E-07
       244 -1.352712E-18 -3.460511E-03 -9.677976E-04
       245 -2.583975E-09 -3.440185E-03 -2.129440E-06
       246 -1.274782E-18 -3.446896E-03 -2.148043E-06
       247  2.583975E-09 -3.440185E-03 -2.129440E-06
       248 -1.969920E-18 -3.463148E-03  9.634043E-04
       249 -7.872133E-19 -4.879961E-03 -4.124527E-06
       250 -4.994711E-19 -6.484005E-03 -1.210379E-03
       251  4.773646E-09 -6.469632E-03 -6.571980E-06
       252 -3.622148E-19 -6.474999E-03 -6.589756E-06
       253 -4.773646E-09 -6.469632E-03 -6.571980E-06
       254 -1.212169E-18 -6.487978E-03  1.197107E-03
       255 -4.959948E-19 -8.208718E-03 -9.500453E-06
       256 -4.011585E-19 -1.006803E-02 -1.381828E-03
       257  2.278440E-08 -1.006085E-02 -1.281181E-05
       258  2.346620E-19 -1.006219E-02 -1.281923E-05
       259 -2.278440E-08 -1.006085E-02 -1.281181E-05
       260  2.400254E-19 -1.007307E-02  1.356143E-03
       261  1.064886E-18 -1.203134E-02 -1.654952E-05

 stresses (elem, integ.pnt.,sxx,syy,szz,sxy,sxz,syz) for set EALL and time  0.5000000E-05

         1   1  1.721877E+01  1.906478E+01  4.818649E+01 -4.285844E-01  4.006530E+00  1.866268E+01
         1   2  1.752682E+01  1.928511E+01  4.899124E+01 -8.802745E-02  2.171704E+00  1.921634E+01
         1   3  1.739149E+01  1.908762E+01  4.873468E+01  2.523494E-01  3.375785E-01  1.979763E+01
         1   4  6.529277E+00  7.333186E+00  1.980144E+01 -4.482463E-01  2.203054E+00  1.947176E+01
         1   5  6.756051E+00  7.481493E+00  2.040792E+01 -1.112643E-01  1.205672E+00  1.989468E+01
         1   6  6.741336E+00  7.414003E+00  2.042496E+01  2.255651E-01  2.086730E-01  2.037847E+01
         1   7  5.477382E-01  3.791113E-01  2.644653E+00 -4.610098E-01  4.923610E-01  2.027010E+01
         1   8  5.755551E-01  3.378308E-01  2.778722E+00 -1.276122E-01  2.720023E-01  2.057414E+01
         1   9  5.638945E-01  2.828401E-01  2.794983E+00  2.056494E-01  5.170144E-02  2.097227E+01
         1  10  6.731607E-01  5.154868E+00  1.806489E+01 -9.904091E-01  3.957101E-01  1.158074E+01
         1  11  1.157112E+00  5.329480E+00  1.948750E+01 -2.347781E-01 -3.155739E-02  1.140970E+01
         1  12  1.263639E+00  5.240674E+00  1.991513E+01  5.202618E-01 -4.580951E-01  1.144600E+01
         1  13 -2.539389E+00 -4.027548E-01  2.941385E+00 -1.010950E+00  2.661868E-01  1.759006E+01
         1  14 -2.260425E+00 -3.909166E-01  3.850452E+00 -2.728503E-01  6.321567E-02  1.723263E+01
         1  15 -2.156807E+00 -4.403407E-01  4.236371E+00  4.646600E-01 -1.393695E-01  1.711569E+01
         1  16 -1.461414E+00 -1.360023E+00 -1.137781E+00 -1.001049E+00  7.148621E-02  2.358775E+01
         1  17 -1.504999E+00 -1.628563E+00 -1.016301E+00 -2.804727E-01  3.293380E-02  2.305558E+01
         1  18 -1.521832E+00 -1.756179E+00 -9.463199E-01  4.395133E-01 -5.576210E-03  2.279714E+01
         1  19  9.895735E-02  1.529803E+00 -4.168477E+00 -1.270972E-01 -2.767521E+00  9.197652E+00
         1  20  8.551436E-01  1.885042E+00 -2.031694E+00 -1.321068E-01 -1.788287E+00  8.173786E+00
         1  21  1.300285E+00  2.131463E+00 -8.232981E-01 -1.382264E-01 -8.082260E-01  7.536833E+00
         1  22 -1.809471E+00 -4.985632E-01 -8.683097E+00 -5.168513E-02 -1.417537E+00  2.040486E+01
         1  23 -1.381443E+00 -3.969327E-01 -7.374728E+00 -8.810915E-02 -8.265521E-01  1.913876E+01
         1  24 -1.062506E+00 -2.019024E-01 -6.523083E+00 -1.256161E-01 -2.351367E-01  1.829272E+01
         1  25  1.551078E-01  1.897443E+00 -2.331212E+00  7.819728E-02 -2.895280E-01  3.160224E+01
         1  26  1.371734E-01  1.627653E+00 -2.125724E+00  1.016683E-02 -1.466125E-01  3.010527E+01
         1  27  2.122160E-01  1.653562E+00 -1.905261E+00 -5.891237E-02 -3.631404E-03  2.906169E+01
         2   1  1.739149E+01  1.908762E+01  4.873468E+01 -2.523494E-01 -3.375785E-01  1.979763E+01
         2   2  1.752682E+01  1.928511E+01  4.899124E+01  8.802745E-02 -2.171704E+00  1.921634E+01
         2   3  1.721877E+01  1.906478E+01  4.818649E+01  4.285844E-01 -4.006530E+00  1.866268E+01
         2   4  6.741336E+00  7.414003E+00  2.042496E+01 -2.255651E-01 -2.086730E-01  2.037847E+01
         2   5  6.756051E+00  7.481493E+00  2.040792E+01  1.112643E-01 -1.205672E+00  1.989468E+01
         2   6  6.529277E+00  7.333186E+00  1.980144E+01  4.482463E-01 -2.203054E+00  1.947176E+01
         2   7  5.638945E-01  2.828401E-01  2.794983E+00 -2.056494E-01 -5.170144E-02  2.097227E+01
         2   8  5.755551E-01  3.378308E-01  2.778722E+00  1.276122E-01 -2.720023E-01  2.057414E+01
         2   9  5.477382E-01  3.791113E-01  2.644653E+00  4.610098E-01 -4.923610E-01  2.027010E+01
         2  10  1.263639E+00  5.240674E+00  1.991513E+01 -5.202618E-01  4.580951E-01  1.144600E+01
         2  11  1.157112E+00  5.329480E+00  1.948750E+01  2.347781E-01  3.155739E-02  1.140970E+01
         2  12  6.731607E-01  5.154868E+00  1.806489E+01  9.904091E-01 -3.957101E-01  1.158074E+01
         2  13 -2.156807E+00 -4.403407E-01  4.236371E+00 -4.646600E-01  1.393695E-01  1.711569E+01
         2  14 -2.260425E+00 -3.909166E-01  3.850452E+00  2.728503E-01 -6.321567E-02  1.723263E+01
         2  15 -2.539389E+00 -4.027548E-01  2.941385E+00  1.010950E+00 -2.661868E-01  1.759006E+01
         2  16 -1.521832E+00 -1.756179E+00 -9.463199E-01 -4.395133E-01  5.576210E-03  2.279714E+01
         2  17 -1.504999E+00 -1.628563E+00 -1.016301E+00  2.804727E-01 -3.293380E-02  2.305558E+01
         2  18 -1.461414E+00 -1.360023E+00 -1.137781E+00  1.001049E+00 -7.148621E-02  2.358775E+01
         2  19  1.300285E+00  2.131463E+00 -8.232981E-01  1.382264E-01  8.082260E-01  7.536833E+00
         2  20  8.551436E-01  1.885042E+00 -2.031694E+00  1.321068E-01  1.788287E+00  8.173786E+00
         2  21  9.895735E-02  1.529803E+00 -4.168477E+00  1.270972E-01  2.767521E+00  9.197652E+00
         2  22 -1.062506E+00 -2.019024E-01 -6.523083E+00  1.256161E-01  2.351367E-01  1.829272E+01
         2  23 -1.381443E+00 -3.969327E-01 -7.374728E+00  8.810915E-02  8.265521E-01  1.913876E+01
         2  24 -1.809471E+00 -4.985632E-01 -8.683097E+00  5.168513E-02  1.417537E+00  2.040486E+01
         2  25  2.122160E-01  1.653562E+00 -1.905261E+00  5.891237E-02  3.631404E-03  2.906169E+01
         2  26  1.371734E-01  1.627653E+00 -2.125724E+00 -1.016683E-02  1.466125E-01  3.010527E+01
         2  27  1.551078E-01  1.897443E+00 -2.331212E+00 -7.819728E-02  2.895280E-01  3.160224E+01
         3   1 -4.875430E-01 -2.942274E-01 -2.446847E+00 -4.614935E-01 -4.686004E-01  2.026541E+01
         3   2 -5.196045E-01 -2.563494E-01 -2.590574E+00 -1.278784E-01 -2.593407E-01  2.056935E+01
         3   3 -5.120192E-01 -2.043855E-01 -2.616156E+00  2.056190E-01 -5.021337E-02  2.096747E+01
         3   4 -6.466789E+00 -7.247415E+00 -1.959320E+01 -4.503542E-01 -2.178240E+00  1.944441E+01
         3   5 -6.698013E+00 -7.399042E+00 -2.020920E+01 -1.124171E-01 -1.192423E+00  1.986678E+01
         3   6 -6.687400E+00 -7.334467E+00 -2.023554E+01  2.254189E-01 -2.070659E-01  2.035041E+01
         3   7 -1.715366E+01 -1.897787E+01 -4.794504E+01 -4.324100E-01 -3.977899E+00  1.860632E+01
         3   8 -1.746667E+01 -1.920151E+01 -4.875897E+01 -9.014214E-02 -2.156344E+00  1.915880E+01
         3   9 -1.733553E+01 -1.900677E+01 -4.851199E+01  2.520520E-01 -3.355856E-01  1.973964E+01
         3  10  1.458528E+00  1.396905E+00  1.315227E+00 -1.001242E+00 -6.635487E-02  2.358816E+01
         3  11  1.501705E+00  1.664500E+00  1.194029E+00 -2.805653E-01 -3.169386E-02  2.305581E+01
         3  12  1.518466E+00  1.792133E+00  1.124994E+00  4.395772E-01  2.819503E-03  2.279730E+01
         3  13  2.535538E+00  4.275780E-01 -2.767232E+00 -1.010899E+00 -2.610318E-01  1.758313E+01
         3  14  2.256266E+00  4.149753E-01 -3.675646E+00 -2.726677E-01 -6.199170E-02  1.722500E+01
         3  15  2.152682E+00  4.644278E-01 -4.060406E+00  4.650292E-01  1.365911E-01  1.710780E+01
         3  16 -6.753205E-01 -5.137390E+00 -1.788030E+01 -9.902117E-01 -3.902705E-01  1.156190E+01
         3  17 -1.159545E+00 -5.312734E+00 -1.930151E+01 -2.344326E-01  3.286966E-02  1.138988E+01
         3  18 -1.265954E+00 -5.223977E+00 -1.972775E+01  5.208133E-01  4.552432E-01  1.142580E+01
         3  19 -1.571792E-01 -1.842999E+00  2.531776E+00  7.821506E-02  2.834687E-01  3.160514E+01
         3  20 -1.362879E-01 -1.573690E+00  2.335130E+00  1.011959E-02  1.431934E-01  3.010785E+01
         3  21 -2.078796E-01 -1.598248E+00  2.124828E+00 -5.892261E-02  2.793600E-03  2.906404E+01
         3  22  1.802990E+00  5.239248E-01  8.868635E+00 -4.949608E-02  1.411179E+00  2.041642E+01
         3  23  1.377969E+00  4.225958E-01  7.569949E+00 -8.694845E-02  8.229902E-01  1.914889E+01
         3  24  1.062601E+00  2.293022E-01  6.729049E+00 -1.253134E-01  2.343884E-01  1.830199E+01
         3  25 -1.050438E-01 -1.521987E+00  4.355836E+00 -1.238043E-01  2.760944E+00  9.209695E+00
         3  26 -8.587209E-01 -1.876706E+00  2.229115E+00 -1.304219E-01  1.784620E+00  8.184077E+00
         3  27 -1.300498E+00 -2.121405E+00  1.031658E+00 -1.379246E-01  8.076253E-01  7.546115E+00
         4   1 -5.120192E-01 -2.043855E-01 -2.616156E+00 -2.056190E-01  5.021337E-02  2.096747E+01
         4   2 -5.196045E-01 -2.563494E-01 -2.590574E+00  1.278784E-01  2.593407E-01  2.056935E+01
         4   3 -4.875430E-01 -2.942274E-01 -2.446847E+00  4.614935E-01  4.686004E-01  2.026541E+01
         4   4 -6.687400E+00 -7.334467E+00 -2.023554E+01 -2.254189E-01  2.070659E-01  2.035041E+01
         4   5 -6.698013E+00 -7.399042E+00 -2.020920E+01  1.124171E-01  1.192423E+00  1.986678E+01
         4   6 -6.466789E+00 -7.247415E+00 -1.959320E+01  4.503542E-01  2.178240E+00  1.944441E+01
         4   7 -1.733553E+01 -1.900677E+01 -4.851199E+01 -2.520520E-01  3.355856E-01  1.973964E+01
         4   8 -1.746667E+01 -1.920151E+01 -4.875897E+01  9.014214E-02  2.156344E+00  1.915880E+01
         4   9 -1.715366E+01 -1.897787E+01 -4.794504E+01  4.324100E-01  3.977899E+00  1.860632E+01
         4  10  1.518466E+00  1.792133E+00  1.124994E+00 -4.395772E-01 -2.819503E-03  2.279730E+01
         4  11  1.501705E+00  1.664500E+00  1.194029E+00  2.805653E-01  3.169386E-02  2.305581E+01
         4  12  1.458528E+00  1.396905E+00  1.315227E+00  1.001242E+00  6.635487E-02  2.358816E+01
         4  13  2.152682E+00  4.644278E-01 -4.060406E+00 -4.650292E-01 -1.365911E-01  1.710780E+01
         4  14  2.256266E+00  4.149753E-01 -3.675646E+00  2.726677E-01  6.199170E-02  1.722500E+01
         4  15  2.535538E+00  4.275780E-01 -2.767232E+00  1.010899E+00  2.610318E-01  1.758313E+01
         4  16 -1.265954E+00 -5.223977E+00 -1.972775E+01 -5.208133E-01 -4.552432E-01  1.142580E+01
         4  17 -1.159545E+00 -5.312734E+00 -1.930151E+01  2.344326E-01 -3.286966E-02  1.138988E+01
         4  18 -6.753205E-01 -5.137390E+00 -1.788030E+01  9.902117E-01  3.902705E-01  1.156190E+01
         4  19 -2.078796E-01 -1.598248E+00  2.124828E+00  5.892261E-02 -2.793600E-03  2.906404E+01
         4  20 -1.362879E-01 -1.573690E+00  2.335130E+00 -1.011959E-02 -1.431934E-01  3.010785E+01
         4  21 -1.571792E-01 -1.842999E+00  2.531776E+00 -7.821506E-02 -2.834687E-01  3.160514E+01
         4  22  1.062601E+00  2.293022E-01  6.729049E+00  1.253134E-01 -2.343884E-01  1.830199E+01
         4  23  1.377969E+00  4.225958E-01  7.569949E+00  8.694845E-02 -8.229902E-01  1.914889E+01
         4  24  1.802990E+00  5.239248E-01  8.868635E+00  4.949608E-02 -1.411179E+00  2.041642E+01
         4  25 -1.300498E+00 -2.121405E+00  1.031658E+00  1.379246E-01 -8.076253E-01  7.546115E+00
         4  26 -8.587209E-01 -1.876706E+00  2.229115E+00  1.304219E-01 -1.784620E+00  8.184077E+00
         4  27 -1.050438E-01 -1.521987E+00  4.355836E+00  1.238043E-01 -2.760944E+00  9.209695E+00
         5   1 -1.298894E+00 -2.274738E+00 -2.606204E+01  3.443597E-01 -2.859123E-01  8.701446E+00
         5   2 -1.792310E+00 -3.063738E+00 -2.695391E+01 -5.873409E-02 -3.488793E-01  7.360860E+00
         5   3 -1.994954E+00 -3.383307E+00 -2.734601E+01 -4.631332E-01 -4.111536E-01  7.064369E+00
         5   4  1.598785E+00  1.716766E+00 -1.121585E+01  4.564497E-01  2.642090E-01  2.046750E+01
         5   5  1.255687E+00  1.147387E+00 -1.181120E+01  2.590632E-02  1.536720E-01  1.899059E+01
         5   6  1.134621E+00  9.789790E-01 -1.206661E+01 -4.059140E-01  4.359152E-02  1.849366E+01
         5   7  2.011969E+00  3.707390E+00 -5.533766E-01  6.178365E-01  1.551745E-01  3.102764E+01
         5   8  1.851001E+00  3.389462E+00 -7.777119E-01  1.599182E-01  1.136585E-01  2.939489E+01
         5   9  1.843387E+00  3.403999E+00 -8.220236E-01 -2.992661E-01  7.236018E-02  2.867790E+01
         5  10 -5.508266E-01 -2.135062E+00 -4.827704E+01  1.985319E-01 -5.128500E-01  5.574870E+00
         5  11 -7.560340E-01 -2.322566E+00 -4.882091E+01 -1.140791E-02 -4.699588E-01  4.393282E+00
         5  12 -7.991002E-01 -2.341125E+00 -4.899377E+01 -2.229946E-01 -4.263710E-01  4.194444E+00
         5  13  7.387853E-01 -1.970356E-01 -2.471985E+01  2.349802E-01  1.091457E-01  1.627202E+01
         5  14  6.221745E-01 -2.780779E-01 -2.505524E+01  2.473242E-02  5.798238E-02  1.494867E+01
         5  15  5.989803E-01 -2.586310E-01 -2.517943E+01 -1.871364E-01  7.279423E-03  1.454403E+01
         5  16  3.621477E-01  9.124904E-02 -4.989660E+00  2.814741E-01  1.148446E-01  2.576454E+01
         5  17  3.660090E-01  1.485591E-01 -5.041975E+00  7.094530E-02  8.615973E-02  2.427986E+01
         5  18  3.946050E-01  2.378459E-01 -5.043023E+00 -1.411930E-01  5.769426E-02  2.364972E+01
         5  19  2.666594E-01 -4.618185E-01 -6.999720E+01  8.815783E-02 -6.765827E-01  7.485788E+00
         5  20  2.817214E-01 -2.062352E-01 -7.026118E+01  1.315425E-01 -5.282431E-01  6.444886E+00
         5  21  3.303976E-01 -8.198762E-02 -7.028270E+01  1.729373E-01 -3.792044E-01  6.325431E+00
         5  22  2.619929E-01 -4.428036E-01 -3.759987E+01 -1.870709E-02 -1.018995E-02  1.711343E+01
         5  23  3.039731E-01 -1.939370E-01 -3.774340E+01  5.145326E-02 -2.307690E-03  1.592534E+01
         5  24  3.108402E-01 -1.448500E-01 -3.780424E+01  1.196486E-01  6.034998E-03  1.559471E+01
         5  25 -5.895768E-01 -1.721161E+00 -8.668415E+00 -1.547878E-01  8.275628E-02  2.553749E+01
         5  26 -4.887524E-01 -1.447054E+00 -8.616806E+00 -5.786367E-02  6.664607E-02  2.418258E+01
         5  27 -4.917379E-01 -1.441232E+00 -8.642493E+00  3.710905E-02  5.075181E-02  2.362102E+01
         6   1 -1.994954E+00 -3.383307E+00 -2.734601E+01  4.631332E-01  4.111536E-01  7.064369E+00
         6   2 -1.792310E+00 -3.063738E+00 -2.695391E+01  5.873409E-02  3.488793E-01  7.360860E+00
         6   3 -1.298894E+00 -2.274738E+00 -2.606204E+01 -3.443597E-01  2.859123E-01  8.701446E+00
         6   4  1.134621E+00  9.789790E-01 -1.206661E+01  4.059140E-01 -4.359152E-02  1.849366E+01
         6   5  1.255687E+00  1.147387E+00 -1.181120E+01 -2.590632E-02 -1.536720E-01  1.899059E+01
         6   6  1.598785E+00  1.716766E+00 -1.121585E+01 -4.564497E-01 -2.642090E-01  2.046750E+01
         6   7  1.843387E+00  3.403999E+00 -8.220236E-01  2.992661E-01 -7.236018E-02  2.867790E+01
         6   8  1.851001E+00  3.389462E+00 -7.777119E-01 -1.599182E-01 -1.136585E-01  2.939489E+01
         6   9  2.011969E+00  3.707390E+00 -5.533766E-01 -6.178365E-01 -1.551745E-01  3.102764E+01
         6  10 -7.991002E-01 -2.341125E+00 -4.899377E+01  2.229946E-01  4.263710E-01  4.194444E+00
         6  11 -7.560340E-01 -2.322566E+00 -4.882091E+01  1.140791E-02  4.699588E-01  4.393282E+00
         6  12 -5.508266E-01 -2.135062E+00 -4.827704E+01 -1.985319E-01  5.128500E-01  5.574870E+00
         6  13  5.989803E-01 -2.586310E-01 -2.517943E+01  1.871364E-01 -7.279423E-03  1.454403E+01
         6  14  6.221745E-01 -2.780779E-01 -2.505524E+01 -2.473242E-02 -5.798238E-02  1.494867E+01
         6  15  7.387853E-01 -1.970356E-01 -2.471985E+01 -2.349802E-01 -1.091457E-01  1.627202E+01
         6  16  3.946050E-01  2.378459E-01 -5.043023E+00  1.411930E-01 -5.769426E-02  2.364972E+01
         6  17  3.660090E-01  1.485591E-01 -5.041975E+00 -7.094530E-02 -8.615973E-02  2.427986E+01
         6  18  3.621477E-01  9.124904E-02 -4.989660E+00 -2.814741E-01 -1.148446E-01  2.576454E+01
         6  19  3.303976E-01 -8.198762E-02 -7.028270E+01 -1.729373E-01  3.792044E-01  6.325431E+00
         6  20  2.817214E-01 -2.062352E-01 -7.026118E+01 -1.315425E-01  5.282431E-01  6.444886E+00
         6  21  2.666594E-01 -4.618185E-01 -6.999720E+01 -8.815783E-02  6.765827E-01  7.485788E+00
         6  22  3.108402E-01 -1.448500E-01 -3.780424E+01 -1.196486E-01 -6.034998E-03  1.559471E+01
         6  23  3.039731E-01 -1.939370E-01 -3.774340E+01 -5.145326E-02  2.307690E-03  1.592534E+01
         6  24  2.619929E-01 -4.428036E-01 -3.759987E+01  1.870709E-02  1.018995E-02  1.711343E+01
         6  25 -4.917379E-01 -1.441232E+00 -8.642493E+00 -3.710905E-02 -5.075181E-02  2.362102E+01
         6  26 -4.887524E-01 -1.447054E+00 -8.616806E+00  5.786367E-02 -6.664607E-02  2.418258E+01