
 displacements (vx,vy,vz) for set NALL and time  0.1000000E+01

         1  0.000000E+00  0.000000E+00  0.000000E+00
         2 -3.780582E-03  0.000000E+00  0.000000E+00
         3 -3.780582E-03 -3.780582E-03  0.000000E+00
         4 -1.315453E-17 -3.780582E-03  0.000000E+00
         5  1.760075E-17  4.810234E-16  1.000000E-01
         6 -3.780582E-03  6.193399E-16  1.000000E-01
         7 -3.780582E-03 -3.780582E-03  1.000000E-01
         8 -8.733374E-17 -3.780582E-03  1.000000E-01
         9 -9.451456E-04  2.361175E-18  0.000000E+00
        10 -1.890291E-03  5.994751E-18  0.000000E+00
        11 -2.835437E-03  6.525998E-18  0.000000E+00
        12 -3.780582E-03 -9.451456E-04  0.000000E+00
        13 -3.780582E-03 -1.890291E-03  0.000000E+00
        14 -3.780582E-03 -2.835437E-03  0.000000E+00
        15 -2.835437E-03 -3.780582E-03  0.000000E+00
        16 -1.890291E-03 -3.780582E-03  0.000000E+00
        17 -9.451456E-04 -3.780582E-03  0.000000E+00
        18 -9.291951E-18 -2.835437E-03  0.000000E+00
        19 -2.592725E-18 -1.890291E-03  0.000000E+00
        20  6.867782E-19 -9.451456E-04  0.000000E+00
        21 -9.451456E-04  5.177570E-16  1.000000E-01
        22 -1.890291E-03  5.256862E-16  1.000000E-01
        23 -2.835437E-03  5.634069E-16  1.000000E-01
        24 -3.780582E-03 -9.451456E-04  1.000000E-01
        25 -3.780582E-03 -1.890291E-03  1.000000E-01
        26 -3.780582E-03 -2.835437E-03  1.000000E-01
        27 -2.835437E-03 -3.780582E-03  1.000000E-01
        28 -1.890291E-03 -3.780582E-03  1.000000E-01
        29 -9.451456E-04 -3.780582E-03  1.000000E-01
        30 -3.423766E-17 -2.835437E-03  1.000000E-01
        31 -4.695570E-18 -1.890291E-03  1.000000E-01
        32 -1.082399E-17 -9.451456E-04  1.000000E-01
        33 -3.780582E-03  1.962518E-17  6.250000E-03
        34 -3.780582E-03  3.762944E-17  1.250000E-02
        35 -3.780582E-03  6.416636E-17  1.875000E-02
        36 -3.780582E-03  1.008735E-16  2.500000E-02
        37 -3.780582E-03  1.423088E-16  3.125000E-02
        38 -3.780582E-03  2.062864E-16  3.750000E-02
        39 -3.780582E-03  2.594953E-16  4.375000E-02
        40 -3.780582E-03  3.106493E-16  5.000000E-02
        41 -3.780582E-03  3.375572E-16  5.625000E-02
        42 -3.780582E-03  3.944367E-16  6.250000E-02
        43 -3.780582E-03  4.352553E-16  6.875000E-02
        44 -3.780582E-03  4.626037E-16  7.500000E-02
        45 -3.780582E-03  5.082363E-16  8.125000E-02
        46 -3.780582E-03  5.129976E-16  8.750000E-02
        47 -3.780582E-03  5.731895E-16  9.375000E-02
        48  1.660132E-17  5.212637E-16  9.375000E-02
        49 -1.800747E-17  5.143175E-16  8.750000E-02
        50  3.774393E-18  4.652964E-16  8.125000E-02
        51 -4.481487E-18  4.563655E-16  7.500000E-02
        52  8.166008E-18  3.839168E-16  6.875000E-02
        53 -3.705909E-18  3.603258E-16  6.250000E-02
        54 -1.344913E-17  3.046102E-16  5.625000E-02
        55  3.844137E-18  2.574362E-16  5.000000E-02
        56 -5.681064E-18  2.055157E-16  4.375000E-02
        57 -6.206217E-18  1.548647E-16  3.750000E-02
        58 -2.138082E-18  1.159237E-16  3.125000E-02
        59 -6.828181E-18  8.151146E-17  2.500000E-02
        60  1.014223E-18  3.962928E-17  1.875000E-02
        61  5.090456E-18  1.729958E-17  1.250000E-02
        62  3.534731E-18  5.017419E-18  6.250000E-03
        63 -3.780582E-03 -3.780582E-03  6.250000E-03
        64 -3.780582E-03 -3.780582E-03  1.250000E-02
        65 -3.780582E-03 -3.780582E-03  1.875000E-02
        66 -3.780582E-03 -3.780582E-03  2.500000E-02
        67 -3.780582E-03 -3.780582E-03  3.125000E-02
        68 -3.780582E-03 -3.780582E-03  3.750000E-02
        69 -3.780582E-03 -3.780582E-03  4.375000E-02
        70 -3.780582E-03 -3.780582E-03  5.000000E-02
        71 -3.780582E-03 -3.780582E-03  5.625000E-02
        72 -3.780582E-03 -3.780582E-03  6.250000E-02
        73 -3.780582E-03 -3.780582E-03  6.875000E-02
        74 -3.780582E-03 -3.780582E-03  7.500000E-02
        75 -3.780582E-03 -3.780582E-03  8.125000E-02
        76 -3.780582E-03 -3.780582E-03  8.750000E-02
        77 -3.780582E-03 -3.780582E-03  9.375000E-02
        78 -1.408743E-17 -3.780582E-03  6.250000E-03
        79 -1.821106E-17 -3.780582E-03  1.250000E-02
        80 -2.689622E-17 -3.780582E-03  1.875000E-02
        81 -3.395459E-17 -3.780582E-03  2.500000E-02
        82 -4.317640E-17 -3.780582E-03  3.125000E-02
        83 -3.644810E-17 -3.780582E-03  3.750000E-02
        84 -6.039742E-17 -3.780582E-03  4.375000E-02
        85 -5.596813E-17 -3.780582E-03  5.000000E-02
        86 -4.482287E-17 -3.780582E-03  5.625000E-02
        87 -3.725590E-17 -3.780582E-03  6.250000E-02
        88 -3.742477E-17 -3.780582E-03  6.875000E-02
        89 -1.587509E-17 -3.780582E-03  7.500000E-02
        90 -2.373259E-17 -3.780582E-03  8.125000E-02
        91 -2.919673E-17 -3.780582E-03  8.750000E-02
        92 -2.779313E-17 -3.780582E-03  9.375000E-02
        93 -1.890291E-03 -9.451456E-04  0.000000E+00
        94 -9.451456E-04 -1.890291E-03  0.000000E+00
        95 -1.890291E-03 -1.890291E-03  0.000000E+00
        96 -2.835437E-03 -1.890291E-03  0.000000E+00
        97 -1.890291E-03 -2.835437E-03  0.000000E+00
        98 -1.890291E-03 -9.451456E-04  1.000000E-01
        99 -9.451456E-04 -1.890291E-03  1.000000E-01
       100 -1.890291E-03 -1.890291E-03  1.000000E-01
       101 -2.835437E-03 -1.890291E-03  1.000000E-01
       102 -1.890291E-03 -2.835437E-03  1.000000E-01
       103 -1.890291E-03  1.353541E-17  6.250000E-03
       104 -9.451456E-04  2.392762E-17  1.250000E-02
       105 -1.890291E-03  2.829884E-17  1.250000E-02
       106 -2.835437E-03  3.203074E-17  1.250000E-02
       107 -1.890291E-03  5.172184E-17  1.875000E-02
       108 -9.451456E-04  8.604154E-17  2.500000E-02
       109 -1.890291E-03  8.960472E-17  2.500000E-02
       110 -2.835437E-03  9.555787E-17  2.500000E-02
       111 -1.890291E-03  1.314319E-16  3.125000E-02
       112 -9.451456E-04  1.630026E-16  3.750000E-02
       113 -1.890291E-03  1.777011E-16  3.750000E-02
       114 -2.835437E-03  1.941081E-16  3.750000E-02
       115 -1.890291E-03  2.328132E-16  4.375000E-02
       116 -9.451456E-04  2.774204E-16  5.000000E-02
       117 -1.890291E-03  2.889910E-16  5.000000E-02
       118 -2.835437E-03  2.998649E-16  5.000000E-02
       119 -1.890291E-03  3.243109E-16  5.625000E-02
       120 -9.451456E-04  3.639583E-16  6.250000E-02
       121 -1.890291E-03  3.638192E-16  6.250000E-02
       122 -2.835437E-03  3.786867E-16  6.250000E-02
       123 -1.890291E-03  4.108639E-16  6.875000E-02
       124 -9.451456E-04  4.525676E-16  7.500000E-02
       125 -1.890291E-03  4.479384E-16  7.500000E-02
       126 -2.835437E-03  4.536988E-16  7.500000E-02
       127 -1.890291E-03  4.885020E-16  8.125000E-02
       128 -9.451456E-04  5.018705E-16  8.750000E-02
       129 -1.890291E-03  4.995965E-16  8.750000E-02
       130 -2.835437E-03  5.077217E-16  8.750000E-02
       131 -1.890291E-03  5.645339E-16  9.375000E-02
       132 -3.780582E-03 -1.890291E-03  6.250000E-03
       133 -3.780582E-03 -9.451456E-04  1.250000E-02
       134 -3.780582E-03 -1.890291E-03  1.250000E-02
       135 -3.780582E-03 -2.835437E-03  1.250000E-02
       136 -3.780582E-03 -1.890291E-03  1.875000E-02
       137 -3.780582E-03 -9.451456E-04  2.500000E-02
       138 -3.780582E-03 -1.890291E-03  2.500000E-02
       139 -3.780582E-03 -2.835437E-03  2.500000E-02
       140 -3.780582E-03 -1.890291E-03  3.125000E-02
       141 -3.780582E-03 -9.451456E-04  3.750000E-02
       142 -3.780582E-03 -1.890291E-03  3.750000E-02
       143 -3.780582E-03 -2.835437E-03  3.750000E-02
       144 -3.780582E-03 -1.890291E-03  4.375000E-02
       145 -3.780582E-03 -9.451456E-04  5.000000E-02
       146 -3.780582E-03 -1.890291E-03  5.000000E-02
       147 -3.780582E-03 -2.835437E-03  5.000000E-02
       148 -3.780582E-03 -1.890291E-03  5.625000E-02
       149 -3.780582E-03 -9.451456E-04  6.250000E-02
       150 -3.780582E-03 -1.890291E-03  6.250000E-02
       151 -3.780582E-03 -2.835437E-03  6.250000E-02
       152 -3.780582E-03 -1.890291E-03  6.875000E-02
       153 -3.780582E-03 -9.451456E-04  7.500000E-02
       154 -3.780582E-03 -1.890291E-03  7.500000E-02
       155 -3.780582E-03 -2.835437E-03  7.500000E-02
       156 -3.780582E-03 -1.890291E-03  8.125000E-02
       157 -3.780582E-03 -9.451456E-04  8.750000E-02
       158 -3.780582E-03 -1.890291E-03  8.750000E-02
       159 -3.780582E-03 -2.835437E-03  8.750000E-02
       160 -3.780582E-03 -1.890291E-03  9.375000E-02
       161 -1.890291E-03 -3.780582E-03  6.250000E-03
       162 -2.835437E-03 -3.780582E-03  1.250000E-02
       163 -1.890291E-03 -3.780582E-03  1.250000E-02
       164 -9.451456E-04 -3.780582E-03  1.250000E-02
       165 -1.890291E-03 -3.780582E-03  1.875000E-02
       166 -2.835437E-03 -3.780582E-03  2.500000E-02
       167 -1.890291E-03 -3.780582E-03  2.500000E-02
       168 -9.451456E-04 -3.780582E-03  2.500000E-02
       169 -1.890291E-03 -3.780582E-03  3.125000E-02
       170 -2.835437E-03 -3.780582E-03  3.750000E-02
       171 -1.890291E-03 -3.780582E-03  3.750000E-02
       172 -9.451456E-04 -3.780582E-03  3.750000E-02
       173 -1.890291E-03 -3.780582E-03  4.375000E-02
       174 -2.835437E-03 -3.780582E-03  5.000000E-02
       175 -1.890291E-03 -3.780582E-03  5.000000E-02
       176 -9.451456E-04 -3.780582E-03  5.000000E-02
       177 -1.890291E-03 -3.780582E-03  5.625000E-02
       178 -2.835437E-03 -3.780582E-03  6.250000E-02
       179 -1.890291E-03 -3.780582E-03  6.250000E-02
       180 -9.451456E-04 -3.780582E-03  6.250000E-02
       181 -1.890291E-03 -3.780582E-03  6.875000E-02
       182 -2.835437E-03 -3.780582E-03  7.500000E-02
       183 -1.890291E-03 -3.780582E-03  7.500000E-02
       184 -9.451456E-04 -3.780582E-03  7.500000E-02
       185 -1.890291E-03 -3.780582E-03  8.125000E-02
       186 -2.835437E-03 -3.780582E-03  8.750000E-02
       187 -1.890291E-03 -3.780582E-03  8.750000E-02
       188 -9.451456E-04 -3.780582E-03  8.750000E-02
       189 -1.890291E-03 -3.780582E-03  9.375000E-02
       190 -6.084238E-18 -1.890291E-03  6.250000E-03
       191 -1.213248E-17 -2.835437E-03  1.250000E-02
       192 -6.554341E-18 -1.890291E-03  1.250000E-02
       193 -1.758507E-18 -9.451456E-04  1.250000E-02
       194 -1.339511E-17 -1.890291E-03  1.875000E-02
       195 -2.608523E-17 -2.835437E-03  2.500000E-02
       196 -1.977144E-17 -1.890291E-03  2.500000E-02
       197 -1.336353E-17 -9.451456E-04  2.500000E-02
       198 -1.993721E-17 -1.890291E-03  3.125000E-02
       199 -3.550523E-17 -2.835437E-03  3.750000E-02
       200 -2.839743E-17 -1.890291E-03  3.750000E-02
       201 -1.455202E-17 -9.451456E-04  3.750000E-02
       202 -2.913375E-17 -1.890291E-03  4.375000E-02
       203 -4.280057E-17 -2.835437E-03  5.000000E-02
       204 -3.567181E-17 -1.890291E-03  5.000000E-02
       205 -2.036029E-17 -9.451456E-04  5.000000E-02
       206 -2.901765E-17 -1.890291E-03  5.625000E-02
       207 -3.254220E-17 -2.835437E-03  6.250000E-02
       208 -3.309845E-17 -1.890291E-03  6.250000E-02
       209 -2.052540E-17 -9.451456E-04  6.250000E-02
       210 -1.591067E-17 -1.890291E-03  6.875000E-02
       211 -2.508912E-17 -2.835437E-03  7.500000E-02
       212 -2.672935E-17 -1.890291E-03  7.500000E-02
       213 -1.419024E-17 -9.451456E-04  7.500000E-02
       214 -9.184378E-18 -1.890291E-03  8.125000E-02
       215 -2.143358E-17 -2.835437E-03  8.750000E-02
       216 -1.043926E-17 -1.890291E-03  8.750000E-02
       217 -1.119931E-17 -9.451456E-04  8.750000E-02
       218 -2.289207E-17 -1.890291E-03  9.375000E-02
       219 -1.890291E-03 -1.890291E-03  6.250000E-03
       220 -1.890291E-03 -9.451456E-04  1.250000E-02
       221 -9.451456E-04 -1.890291E-03  1.250000E-02
       222 -1.890291E-03 -1.890291E-03  1.250000E-02
       223 -2.835437E-03 -1.890291E-03  1.250000E-02
       224 -1.890291E-03 -2.835437E-03  1.250000E-02
       225 -1.890291E-03 -1.890291E-03  1.875000E-02
       226 -1.890291E-03 -9.451456E-04  2.500000E-02
       227 -9.451456E-04 -1.890291E-03  2.500000E-02
       228 -1.890291E-03 -1.890291E-03  2.500000E-02
       229 -2.835437E-03 -1.890291E-03  2.500000E-02
       230 -1.890291E-03 -2.835437E-03  2.500000E-02
       231 -1.890291E-03 -1.890291E-03  3.125000E-02
       232 -1.890291E-03 -9.451456E-04  3.750000E-02
       233 -9.451456E-04 -1.890291E-03  3.750000E-02
       234 -1.890291E-03 -1.890291E-03  3.750000E-02
       235 -2.835437E-03 -1.890291E-03  3.750000E-02
       236 -1.890291E-03 -2.835437E-03  3.750000E-02
       237 -1.890291E-03 -1.890291E-03  4.375000E-02
       238 -1.890291E-03 -9.451456E-04  5.000000E-02
       239 -9.451456E-04 -1.890291E-03  5.000000E-02
       240 -1.890291E-03 -1.890291E-03  5.000000E-02
       241 -2.835437E-03 -1.890291E-03  5.000000E-02
       242 -1.890291E-03 -2.835437E-03  5.000000E-02
       243 -1.890291E-03 -1.890291E-03  5.625000E-02
       244 -1.890291E-03 -9.451456E-04  6.250000E-02
       245 -9.451456E-04 -1.890291E-03  6.250000E-02
       246 -1.890291E-03 -1.890291E-03  6.250000E-02
       247 -2.835437E-03 -1.890291E-03  6.250000E-02
       248 -1.890291E-03 -2.835437E-03  6.250000E-02
       249 -1.890291E-03 -1.890291E-03  6.875000E-02
       250 -1.890291E-03 -9.451456E-04  7.500000E-02
       251 -9.451456E-04 -1.890291E-03  7.500000E-02
       252 -1.890291E-03 -1.890291E-03  7.500000E-02
       253 -2.835437E-03 -1.890291E-03  7.500000E-02
       254 -1.890291E-03 -2.835437E-03  7.500000E-02
       255 -1.890291E-03 -1.890291E-03  8.125000E-02
       256 -1.890291E-03 -9.451456E-04  8.750000E-02
       257 -9.451456E-04 -1.890291E-03  8.750000E-02
       258 -1.890291E-03 -1.890291E-03  8.750000E-02
       259 -2.835437E-03 -1.890291E-03  8.750000E-02
       260 -1.890291E-03 -2.835437E-03  8.750000E-02
       261 -1.890291E-03 -1.890291E-03  9.375000E-02

 stresses (elem, integ.pnt.,sxx,syy,szz,sxy,sxz,syz) for set EALL and time  0.1000000E+01

         1   1  5.595862E-04  5.595862E-04  2.694761E+03  3.704024E-13  7.399264E-13  2.920488E-13
         1   2  5.595862E-04  5.595862E-04  2.694761E+03  3.721173E-13 -9.406131E-14  3.444176E-13
         1   3  5.595862E-04  5.595862E-04  2.694761E+03 -6.040801E-14  2.022629E-13  7.679736E-13
         1   4  5.595862E-04  5.595862E-04  2.694761E+03  1.620340E-15  1.594614E-13  6.239089E-14
         1   5  5.595862E-04  5.595862E-04  2.694761E+03  1.205324E-13 -9.814731E-13 -6.657297E-13
         1   6  5.595862E-04  5.595862E-04  2.694761E+03 -1.276228E-13  5.977324E-13  1.094948E-12
         1   7  5.595862E-04  5.595862E-04  2.694761E+03  2.153107E-13  2.192336E-12  4.282588E-13
         1   8  5.595862E-04  5.595862E-04  2.694761E+03  1.739445E-13 -1.486571E-12  6.835713E-13
         2   1  5.595862E-04  5.595862E-04  2.694761E+03  1.809404E-13  2.535948E-13  1.554647E-13
         2   2  5.595862E-04  5.595862E-04  2.694761E+03 -3.618808E-13 -4.167719E-13  1.299017E-12
         2   3  5.595862E-04  5.595862E-04  2.694761E+03 -3.446483E-14  4.260426E-13  4.119685E-13
         2   4  5.595862E-04  5.595862E-04  2.694761E+03 -3.791132E-13  2.101123E-13  1.417648E-13
         2   5  5.595862E-04  5.595862E-04  2.694761E+03 -5.342049E-13  8.237570E-13  7.007897E-13
         2   6  5.595862E-04  5.595862E-04  2.694761E+03  1.637080E-13  1.036017E-13  9.035083E-13
         2   7  5.595862E-04  5.595862E-04  2.694761E+03 -3.446483E-13  1.810390E-12  1.151905E-12
         2   8  5.595862E-04  5.595862E-04  2.694761E+03  1.895566E-13 -1.351919E-12  7.973266E-13
         3   1  5.595862E-04  5.595862E-04  2.694761E+03 -3.931908E-13  2.026426E-13 -2.527498E-13
         3   2  5.595862E-04  5.595862E-04  2.694761E+03  1.498278E-13 -4.707932E-13 -2.108811E-13
         3   3  5.595862E-04  5.595862E-04  2.694761E+03 -2.725639E-13 -1.957944E-13 -2.743318E-13
         3   4  5.595862E-04  5.595862E-04  2.694761E+03 -5.263920E-15 -9.521384E-14 -8.757588E-13
         3   5  5.595862E-04  5.595862E-04  2.694761E+03 -1.777856E-13  5.074906E-13 -1.687354E-12
         3   6  5.595862E-04  5.595862E-04  2.694761E+03 -7.419359E-14  2.621908E-13 -5.949789E-13
         3   7  5.595862E-04  5.595862E-04  2.694761E+03 -1.088560E-13 -1.052232E-12  1.043358E-12
         3   8  5.595862E-04  5.595862E-04  2.694761E+03 -3.154474E-13 -1.168840E-12 -1.075745E-12
         4   1  5.595862E-04  5.595862E-04  2.694761E+03 -3.963456E-13  4.415156E-13 -3.397148E-13
         4   2  5.595862E-04  5.595862E-04  2.694761E+03  2.929511E-13 -8.243769E-13 -6.408788E-14
         4   3  5.595862E-04  5.595862E-04  2.694761E+03  3.791132E-13  2.439674E-13  1.745390E-14
         4   4  5.595862E-04  5.595862E-04  2.694761E+03  2.671025E-13 -8.516414E-14  7.376365E-14
         4   5  5.595862E-04  5.595862E-04  2.694761E+03 -1.206269E-13 -8.449651E-16 -3.075362E-15
         4   6  5.595862E-04  5.595862E-04  2.694761E+03  4.221942E-13  2.728115E-13  3.746433E-13
         4   7  5.595862E-04  5.595862E-04  2.694761E+03 -2.412538E-13  3.443692E-13 -3.106250E-13
         4   8  5.595862E-04  5.595862E-04  2.694761E+03  2.154052E-13 -4.671424E-13 -2.116652E-14
         5   1  5.595862E-04  5.595862E-04  2.694761E+03  1.040917E-13 -1.579486E-13 -4.504367E-13
         5   2  5.595862E-04  5.595862E-04  2.694761E+03 -1.534694E-13 -1.556733E-12  7.860197E-13
         5   3  5.595862E-04  5.595862E-04  2.694761E+03  2.591835E-13  6.756184E-14  2.017953E-12
         5   4  5.595862E-04  5.595862E-04  2.694761E+03 -9.315597E-14 -9.925935E-15  9.295195E-13
         5   5  5.595862E-04  5.595862E-04  2.694761E+03 -1.802432E-13 -1.786785E-12 -3.268740E-13
         5   6  5.595862E-04  5.595862E-04  2.694761E+03 -1.707018E-13 -1.976971E-12 -3.653835E-13
         5   7  5.595862E-04  5.595862E-04  2.694761E+03  1.385565E-13  1.161058E-12 -1.859705E-12
         5   8  5.595862E-04  5.595862E-04  2.694761E+03 -2.422630E-14 -1.048670E-12  3.729257E-12
         6   1  5.595862E-04  5.595862E-04  2.694761E+03 -3.877294E-13  8.121488E-13 -4.819646E-13
         6   2  5.595862E-04  5.595862E-04  2.694761E+03 -2.584863E-14 -1.335057E-12  3.685106E-12
         6   3  5.595862E-04  5.595862E-04  2.694761E+03 -1.723242E-13  1.595623E-12  2.479014E-12
         6   4  5.595862E-04  5.595862E-04  2.694761E+03 -1.292431E-13 -1.312925E-13  1.337471E-12
         6   5  5.595862E-04  5.595862E-04  2.694761E+03  1.637080E-13  3.298893E-12  2.358347E-12
         6   6  5.595862E-04  5.595862E-04  2.694761E+03  5.514373E-13 -6.136725E-13  7.354550E-13
         6   7  5.595862E-04  5.595862E-04  2.694761E+03 -1.033945E-13  2.481563E-12  6.451308E-13
         6   8  5.595862E-04  5.595862E-04  2.694761E+03 -3.360321E-13 -2.409988E-12  2.337291E-12
         7   1  5.595862E-04  5.595862E-04  2.694761E+03 -1.607951E-14 -1.597739E-13 -1.246184E-12
         7   2  5.595862E-04  5.595862E-04  2.694761E+03  4.489141E-13  9.480977E-13  9.576882E-13
         7   3  5.595862E-04  5.595862E-04  2.694761E+03  2.941040E-13 -1.066151E-12  1.253470E-12
         7   4  5.595862E-04  5.595862E-04  2.694761E+03  3.972168E-13 -5.012915E-14 -1.245021E-12
         7   5  5.595862E-04  5.595862E-04  2.694761E+03  3.974985E-13  8.740906E-13 -1.077657E-12
         7   6  5.595862E-04  5.595862E-04  2.694761E+03  8.712202E-16 -3.410327E-13 -1.170177E-12
         7   7  5.595862E-04  5.595862E-04  2.694761E+03  5.439740E-13 -2.550291E-13 -1.730991E-13
         7   8  5.595862E-04  5.595862E-04  2.694761E+03 -5.082603E-14 -2.943694E-12  5.792214E-13
         8   1  5.595862E-04  5.595862E-04  2.694761E+03  3.101835E-13  9.907332E-13 -1.173820E-12
         8   2  5.595862E-04  5.595862E-04  2.694761E+03 -4.566590E-13  1.037059E-12 -1.365972E-12
         8   3  5.595862E-04  5.595862E-04  2.694761E+03  1.378593E-13  2.300043E-13  1.489182E-12
         8   4  5.595862E-04  5.595862E-04  2.694761E+03  2.671025E-13 -9.590943E-13  6.756061E-13
         8   5  5.595862E-04  5.595862E-04  2.694761E+03 -3.274159E-13  4.158597E-12 -9.417100E-13
         8   6  5.595862E-04  5.595862E-04  2.694761E+03  6.892967E-14 -2.194387E-12 -8.082220E-13
         8   7  5.595862E-04  5.595862E-04  2.694761E+03  3.791132E-13  4.289626E-12 -1.543373E-12
         8   8  5.595862E-04  5.595862E-04  2.694761E+03  3.791132E-13 -2.206594E-12 -2.868268E-13
         9   1  5.595862E-04  5.595862E-04  2.694761E+03 -2.530654E-13 -1.369743E-12 -1.235823E-12
         9   2  5.595862E-04  5.595862E-04  2.694761E+03  4.754978E-13  3.851890E-12  1.237221E-12
         9   3  5.595862E-04  5.595862E-04  2.694761E+03  1.346640E-13 -3.066224E-12  4.632388E-12
         9   4  5.595862E-04  5.595862E-04  2.694761E+03  1.050009E-13  2.361845E-12 -5.121767E-13
         9   5  5.595862E-04  5.595862E-04  2.694761E+03 -8.935740E-14  2.306581E-13 -1.488836E-12
         9   6  5.595862E-04  5.595862E-04  2.694761E+03  1.825468E-13  7.075663E-13 -3.398464E-12
         9   7  5.595862E-04  5.595862E-04  2.694761E+03 -4.081571E-13 -1.807500E-12 -1.082311E-12
         9   8  5.595862E-04  5.595862E-04  2.694761E+03 -7.910848E-13  3.026161E-12  3.029783E-12
        10   1  5.595862E-04  5.595862E-04  2.694761E+03  3.791132E-13  1.505168E-12 -1.000375E-12
        10   2  5.595862E-04  5.595862E-04  2.694761E+03  1.378593E-13 -7.058182E-13  4.099458E-13
        10   3  5.595862E-04  5.595862E-04  2.694761E+03  3.446483E-14  2.894585E-13  2.317773E-12
        10   4  5.595862E-04  5.595862E-04  2.694761E+03 -2.843349E-13  3.490014E-12 -4.175929E-13
        10   5  5.595862E-04  5.595862E-04  2.694761E+03 -1.378593E-13  2.080220E-12  1.152209E-12
        10   6  5.595862E-04  5.595862E-04  2.694761E+03  6.892967E-14 -1.936370E-12  2.550014E-12
        10   7  5.595862E-04  5.595862E-04  2.694761E+03 -4.135780E-13  4.786261E-13  2.026871E-13
        10   8  5.595862E-04  5.595862E-04  2.694761E+03  2.843349E-13 -7.779196E-13  4.977699E-12
        11   1  5.595862E-04  5.595862E-04  2.694761E+03 -5.408182E-13 -4.774293E-12 -2.202910E-12
        11   2  5.595862E-04  5.595862E-04  2.694761E+03 -4.326063E-13 -3.195658E-13 -7.721713E-13
        11   3  5.595862E-04  5.595862E-04  2.694761E+03 -9.457800E-13 -1.972099E-12 -1.109185E-12
        11   4  5.595862E-04  5.595862E-04  2.694761E+03 -7.600222E-13 -5.364451E-12 -1.278460E-12
        11   5  5.595862E-04  5.595862E-04  2.694761E+03 -6.613317E-15  4.649192E-12 -4.427596E-12
        11   6  5.595862E-04  5.595862E-04  2.694761E+03  1.543658E-14 -5.230776E-12 -2.682063E-12
        11   7  5.595862E-04  5.595862E-04  2.694761E+03  6.396023E-13 -3.968740E-12  7.164097E-12
        11   8  5.595862E-04  5.595862E-04  2.694761E+03  7.908953E-13  1.448505E-12 -5.005408E-13
        12   1  5.595862E-04  5.595862E-04  2.694761E+03 -5.859022E-13 -2.499918E-12 -2.112454E-12
        12   2  5.595862E-04  5.595862E-04  2.694761E+03 -6.031346E-13 -2.461474E-12 -1.194855E-12
        12   3  5.595862E-04  5.595862E-04  2.694761E+03 -6.529475E-29  2.657821E-12  4.864908E-14
        12   4  5.595862E-04  5.595862E-04  2.694761E+03  3.877294E-13 -2.839785E-12  8.535772E-14
        12   5  5.595862E-04  5.595862E-04  2.694761E+03  1.723242E-14  2.234479E-12  2.426846E-12
        12   6  5.595862E-04  5.595862E-04  2.694761E+03  1.723242E-14 -6.657635E-12 -4.790698E-13
        12   7  5.595862E-04  5.595862E-04  2.694761E+03 -2.517266E-28 -2.342541E-12  1.269539E-12
        12   8  5.595862E-04  5.595862E-04  2.694761E+03 -4.738915E-13  1.689681E-12 -9.931300E-13
        13   1  5.595862E-04  5.595862E-04  2.694761E+03  3.311379E-13 -2.836403E-12 -2.301359E-12
        13   2  5.595862E-04  5.595862E-04  2.694761E+03  4.849730E-13 -5.768490E-13  3.704534E-12
        13   3  5.595862E-04  5.595862E-04  2.694761E+03  4.862297E-13  3.092053E-12  4.036959E-12
        13   4  5.595862E-04  5.595862E-04  2.694761E+03 -2.387885E-13  1.108217E-12  4.308063E-12
        13   5  5.595862E-04  5.595862E-04  2.694761E+03 -2.978453E-13  1.376144E-13  2.665324E-13
        13   6  5.595862E-04  5.595862E-04  2.694761E+03 -3.421830E-13  2.956584E-12  1.652241E-12
        13   7  5.595862E-04  5.595862E-04  2.694761E+03 -2.212664E-14  9.489518E-13 -2.304480E-13
        13   8  5.595862E-04  5.595862E-04  2.694761E+03  2.781840E-13  3.111496E-13 -1.417219E-12
        14   1  5.595862E-04  5.595862E-04  2.694761E+03  5.945184E-13  1.793836E-12 -1.334008E-12
        14   2  5.595862E-04  5.595862E-04  2.694761E+03 -4.049618E-13 -5.744690E-12  1.556802E-12
        14   3  5.595862E-04  5.595862E-04  2.694761E+03  6.892967E-13  2.206068E-12  4.416347E-12
        14   4  5.595862E-04  5.595862E-04  2.694761E+03 -6.031346E-14  1.535116E-13 -7.716449E-13
        14   5  5.595862E-04  5.595862E-04  2.694761E+03  6.031346E-13 -6.890015E-13  3.539452E-12
        14   6  5.595862E-04  5.595862E-04  2.694761E+03  1.593999E-12  1.672905E-12  4.891042E-12
        14   7  5.595862E-04  5.595862E-04  2.694761E+03  5.859022E-13  2.459344E-12  1.297465E-12
        14   8  5.595862E-04  5.595862E-04  2.694761E+03  1.145956E-12 -2.459081E-12 -2.370870E-12
        15   1  5.595862E-04  5.595862E-04  2.694761E+03  2.688764E-13  6.944858E-13 -3.663948E-13
        15   2  5.595862E-04  5.595862E-04  2.694761E+03  2.674207E-13 -1.555405E-13 -2.809975E-12
        15   3  5.595862E-04  5.595862E-04  2.694761E+03 -6.842236E-15  5.833432E-15 -2.148110E-12
        15   4  5.595862E-04  5.595862E-04  2.694761E+03  5.086746E-13 -1.939512E-12 -2.220475E-12
        15   5  5.595862E-04  5.595862E-04  2.694761E+03 -4.376527E-13 -6.224502E-13  7.009833E-13
        15   6  5.595862E-04  5.595862E-04  2.694761E+03 -1.289248E-13  3.907255E-13  1.830540E-14
        15   7  5.595862E-04  5.595862E-04  2.694761E+03 -1.221728E-12  2.904737E-12 -1.324173E-12
        15   8  5.595862E-04  5.595862E-04  2.694761E+03 -9.733133E-13 -3.756570E-12 -4.989618E-13
        16   1  5.595862E-04  5.595862E-04  2.694761E+03  2.584863E-13 -4.610613E-13  2.580884E-12
        16   2  5.595862E-04  5.595862E-04  2.694761E+03  2.240214E-13 -3.024693E-12  3.382391E-13
        16   3  5.595862E-04  5.595862E-04  2.694761E+03 -1.440514E-28 -2.866658E-12  1.206483E-12
        16   4  5.595862E-04  5.595862E-04  2.694761E+03 -3.187997E-13 -3.689280E-12  2.644467E-12
        16   5  5.595862E-04  5.595862E-04  2.694761E+03 -2.584863E-13  2.482090E-12  2.482172E-12
        16   6  5.595862E-04  5.595862E-04  2.694761E+03 -3.704970E-13 -3.760986E-12  2.412003E-12
        16   7  5.595862E-04  5.595862E-04  2.694761E+03  6.548318E-13  1.157413E-11 -1.125923E-13
        16   8  5.595862E-04  5.595862E-04  2.694761E+03  4.825077E-13  2.089528E-12  2.230185E-14
        17   1  5.595862E-04  5.595862E-04  2.694761E+03  3.408399E-13  3.242466E-12  1.070010E-12
        17   2  5.595862E-04  5.595862E-04  2.694761E+03  1.687729E-13  6.806311E-12 -4.732621E-12
        17   3  5.595862E-04  5.595862E-04  2.694761E+03  1.185228E-12 -3.096142E-12 -5.164178E-14
        17   4  5.595862E-04  5.595862E-04  2.694761E+03  1.211334E-12 -6.692445E-13  4.423814E-12
        17   5  5.595862E-04  5.595862E-04  2.694761E+03 -8.309644E-13 -8.106529E-13  2.110777E-12
        17   6  5.595862E-04  5.595862E-04  2.694761E+03 -7.100803E-13 -1.671055E-12 -3.048145E-12
        17   7  5.595862E-04  5.595862E-04  2.694761E+03 -1.115299E-12  4.551953E-12 -6.288353E-12
        17   8  5.595862E-04  5.595862E-04  2.694761E+03 -7.531614E-13  1.383582E-12  4.849482E-12
        18   1  5.595862E-04  5.595862E-04  2.694761E+03 -4.480428E-13 -9.952767E-13 -5.901499E-12
        18   2  5.595862E-04  5.595862E-04  2.694761E+03 -8.530046E-13  4.309979E-12  8.444334E-12
        18   3  5.595862E-04  5.595862E-04  2.694761E+03 -8.960857E-13 -5.307385E-12  4.604462E-12
        18   4  5.595862E-04  5.595862E-04  2.694761E+03 -1.481988E-12 -5.791801E-13 -3.873808E-13
        18   5  5.595862E-04  5.595862E-04  2.694761E+03  4.825077E-13  4.222969E-12 -9.019854E-12
        18   6  5.595862E-04  5.595862E-04  2.694761E+03 -4.049618E-13 -4.088757E-12  1.003367E-11
        18   7  5.595862E-04  5.595862E-04  2.694761E+03 -1.378593E-13  4.703700E-13 -6.144676E-12
        18   8  5.595862E-04  5.595862E-04  2.694761E+03  2.498700E-13  2.197286E-12  2.807813E-12
        19   1  5.595862E-04  5.595862E-04  2.694761E+03  1.527338E-12  1.909356E-12  7.438427E-13
        19   2  5.595862E-04  5.595862E-04  2.694761E+03  1.288232E-12  7.069110E-12  3.967143E-12
        19   3  5.595862E-04  5.595862E-04  2.694761E+03  9.414360E-13  5.352070E-13  1.937333E-12
        19   4  5.595862E-04  5.595862E-04  2.694761E+03  2.370549E-13 -1.854945E-12  2.900292E-12
        19   5  5.595862E-04  5.595862E-04  2.694761E+03 -5.405519E-13 -2.526059E-12 -4.837241E-13
        19   6  5.595862E-04  5.595862E-04  2.694761E+03 -1.003679E-12 -2.806094E-12  3.117912E-12
        19   7  5.595862E-04  5.595862E-04  2.694761E+03  8.725063E-13 -1.239446E-12 -1.849343E-12
        19   8  5.595862E-04  5.595862E-04  2.694761E+03 -1.075934E-13  1.219887E-11  5.346726E-12
        20   1  5.595862E-04  5.595862E-04  2.694761E+03 -1.206269E-12  1.541350E-12  1.747112E-12
        20   2  5.595862E-04  5.595862E-04  2.694761E+03 -8.616208E-13  5.359003E-12  3.102370E-12
        20   3  5.595862E-04  5.595862E-04  2.694761E+03 -7.582263E-13 -4.796788E-13  1.468346E-13
        20   4  5.595862E-04  5.595862E-04  2.694761E+03 -1.206269E-13  3.489751E-12  4.273640E-12
        20   5  5.595862E-04  5.595862E-04  2.694761E+03  6.548318E-13  3.119408E-12 -3.640367E-12
        20   6  5.595862E-04  5.595862E-04  2.694761E+03  1.137340E-12 -7.427389E-12  5.732742E-12
        20   7  5.595862E-04  5.595862E-04  2.694761E+03  6.892967E-13  1.338745E-12 -5.936891E-12
        20   8  5.595862E-04  5.595862E-04  2.694761E+03  7.237615E-13  1.635934E-12  2.129658E-12
        21   1  5.595862E-04  5.595862E-04  2.694761E+03  1.449733E-14  3.287816E-12 -5.044470E-13