
 displacements (vx,vy,vz) for set NALL and time  0.1000000E+01

         1  0.000000E+00  0.000000E+00  0.000000E+00
         2  0.000000E+00  0.000000E+00  0.000000E+00
         3  0.000000E+00  0.000000E+00  0.000000E+00
         4  0.000000E+00  0.000000E+00  0.000000E+00
         5 -1.862073E-04  8.768936E-02  8.168065E-03
         6 -1.044809E-04  8.768651E-02  8.192959E-03
         7 -1.834236E-04  8.768653E-02 -8.168146E-03
         8 -1.016479E-04  8.768930E-02 -8.193050E-03
         9  0.000000E+00  0.000000E+00  0.000000E+00
        10  0.000000E+00  0.000000E+00  0.000000E+00
        11  0.000000E+00  0.000000E+00  0.000000E+00
        12  0.000000E+00  0.000000E+00  0.000000E+00
        13  0.000000E+00  0.000000E+00  0.000000E+00
        14  0.000000E+00  0.000000E+00  0.000000E+00
        15  0.000000E+00  0.000000E+00  0.000000E+00
        16  0.000000E+00  0.000000E+00  0.000000E+00
        17  0.000000E+00  0.000000E+00  0.000000E+00
        18  0.000000E+00  0.000000E+00  0.000000E+00
        19  0.000000E+00  0.000000E+00  0.000000E+00
        20  0.000000E+00  0.000000E+00  0.000000E+00
        21 -1.639725E-04  8.760251E-02  8.166511E-03
        22 -1.452544E-04  8.759438E-02  8.155602E-03
        23 -1.266351E-04  8.760110E-02  8.178936E-03
        24 -1.444868E-04  8.761949E-02  4.075925E-03
        25 -1.438738E-04  8.757460E-02  1.237724E-05
        26 -1.433053E-04  8.761951E-02 -4.051151E-03
        27 -1.611690E-04  8.760109E-02 -8.166603E-03
        28 -1.424418E-04  8.759437E-02 -8.155700E-03
        29 -1.238086E-04  8.760250E-02 -8.179028E-03
        30 -1.430923E-04  8.762225E-02 -4.076021E-03
        31 -1.438977E-04  8.757734E-02 -1.246512E-05
        32 -1.446820E-04  8.762229E-02  4.051046E-03
        33 -3.097997E-04  5.384162E-04  9.275631E-04
        34 -2.287968E-04  1.919957E-03  1.857874E-03
        35 -2.623989E-04  4.320079E-03  2.731296E-03
        36 -2.383645E-04  7.482932E-03  3.538709E-03
        37 -2.344381E-04  1.146863E-02  4.274526E-03
        38 -2.203655E-04  1.612704E-02  4.951638E-03
        39 -2.126708E-04  2.144730E-02  5.562661E-03
        40 -2.026864E-04  2.733545E-02  6.111007E-03
        41 -1.950306E-04  3.374256E-02  6.592700E-03
        42 -1.877265E-04  4.059867E-02  7.011566E-03
        43 -1.785485E-04  4.783915E-02  7.365312E-03
        44 -1.719304E-04  5.541091E-02  7.656713E-03
        45 -1.674467E-04  6.321464E-02  7.878702E-03
        46 -1.692314E-04  7.123898E-02  8.039671E-03
        47 -1.366057E-04  7.938049E-02  8.138885E-03
        48 -1.290296E-04  7.938324E-02  8.114006E-03
        49 -7.153613E-05  7.124173E-02  8.014896E-03
        50 -4.824344E-05  6.321724E-02  7.854070E-03
        51 -1.907062E-05  5.541338E-02  7.632393E-03
        52  1.213670E-05  4.784134E-02  7.341516E-03
        53  4.514834E-05  4.060056E-02  6.988580E-03
        54  7.543015E-05  3.374413E-02  6.570778E-03
        55  1.048375E-04  2.733676E-02  6.090390E-03
        56  1.351272E-04  2.144835E-02  5.543606E-03
        57  1.614351E-04  1.612784E-02  4.934436E-03
        58  1.920797E-04  1.146911E-02  4.259519E-03
        59  2.103383E-04  7.483136E-03  3.526181E-03
        60  2.459434E-04  4.319919E-03  2.721536E-03
        61  2.213034E-04  1.919601E-03  1.851176E-03
        62  3.076017E-04  5.375122E-04  9.242011E-04
        63  3.078077E-04  5.373101E-04 -9.242028E-04
        64  2.217418E-04  1.919137E-03 -1.851176E-03
        65  2.466907E-04  4.319207E-03 -2.721541E-03
        66  2.113037E-04  7.482167E-03 -3.526196E-03
        67  1.932783E-04  1.146792E-02 -4.259567E-03
        68  1.628741E-04  1.612641E-02 -4.934493E-03
        69  1.366825E-04  2.144678E-02 -5.543666E-03
        70  1.065541E-04  2.733501E-02 -6.090431E-03
        71  7.736464E-05  3.374222E-02 -6.570819E-03
        72  4.729903E-05  4.059837E-02 -6.988623E-03
        73  1.453186E-05  4.783896E-02 -7.341590E-03
        74 -1.648508E-05  5.541076E-02 -7.632485E-03
        75 -4.556952E-05  6.321457E-02 -7.854158E-03
        76 -6.877441E-05  7.123898E-02 -8.014999E-03
        77 -1.262468E-04  7.938049E-02 -8.114084E-03
        78 -3.095998E-04  5.386190E-04 -9.275642E-04
        79 -2.283289E-04  1.920374E-03 -1.857873E-03
        80 -2.616931E-04  4.320813E-03 -2.731300E-03
        81 -2.373942E-04  7.483887E-03 -3.538738E-03
        82 -2.332355E-04  1.146983E-02 -4.274569E-03
        83 -2.190080E-04  1.612844E-02 -4.951691E-03
        84 -2.110933E-04  2.144886E-02 -5.562724E-03
        85 -2.009549E-04  2.733719E-02 -6.111059E-03
        86 -1.931108E-04  3.374450E-02 -6.592764E-03
        87 -1.855377E-04  4.060084E-02 -7.011616E-03
        88 -1.761686E-04  4.784154E-02 -7.365376E-03
        89 -1.693100E-04  5.541351E-02 -7.656837E-03
        90 -1.647779E-04  6.321733E-02 -7.878795E-03
        91 -1.664643E-04  7.124179E-02 -8.039806E-03
        92 -1.338362E-04  7.938328E-02 -8.138960E-03
        93  0.000000E+00  0.000000E+00  0.000000E+00
        94  0.000000E+00  0.000000E+00  0.000000E+00
        95  0.000000E+00  0.000000E+00  0.000000E+00
        96  0.000000E+00  0.000000E+00  0.000000E+00
        97  0.000000E+00  0.000000E+00  0.000000E+00
        98 -1.445995E-04  8.757365E-02  4.068239E-03
        99 -1.439012E-04  8.757171E-02 -6.285116E-06
       100 -1.439264E-04  8.755581E-02 -5.156111E-08
       101 -1.438962E-04  8.757033E-02  6.186929E-06
       102 -1.432020E-04  8.757364E-02 -4.068349E-03
       103 -7.731006E-07  6.703277E-04  8.992307E-04
       104  1.077987E-04  2.028475E-03  1.864841E-03
       105 -3.640509E-06  2.053095E-03  1.879982E-03
       106 -1.150301E-04  2.028650E-03  1.868103E-03
       107 -7.953810E-06  4.440797E-03  2.727129E-03
       108  9.829399E-05  7.570141E-03  3.535926E-03
       109 -1.387533E-05  7.604100E-03  3.540056E-03
       110 -1.260918E-04  7.570033E-03  3.542105E-03
       111 -2.098706E-05  1.157286E-02  4.270549E-03
       112  6.602540E-05  1.620182E-02  4.943426E-03
       113 -2.933777E-05  1.622632E-02  4.947804E-03
       114 -1.247479E-04  1.620143E-02  4.951940E-03
       115 -3.864429E-05  2.153397E-02  5.557248E-03
       116  2.805419E-05  2.739407E-02  6.100014E-03
       117 -4.881230E-05  2.741351E-02  6.104764E-03
       118 -1.257444E-04  2.739343E-02  6.110257E-03
       119 -5.971059E-05  3.381127E-02  6.585925E-03
       120 -1.306821E-05  4.064358E-02  6.998895E-03
       121 -7.121041E-05  4.065620E-02  7.004159E-03
       122 -1.294018E-04  4.064262E-02  7.010302E-03
       123 -8.317841E-05  4.788914E-02  7.357534E-03
       124 -5.707386E-05  5.543540E-02  7.642388E-03
       125 -9.545360E-05  5.544348E-02  7.647885E-03
       126 -1.338717E-04  5.543414E-02  7.654484E-03
       127 -1.078545E-04  6.325113E-02  7.870825E-03
       128 -9.666218E-05  7.126063E-02  8.026597E-03
       129 -1.202982E-04  7.124977E-02  8.032898E-03
       130 -1.440059E-04  7.125927E-02  8.038982E-03
       131 -1.328241E-04  7.939171E-02  8.128428E-03
       132 -1.245563E-06  3.479883E-04  1.641228E-06
       133 -1.173920E-04  1.843285E-03  9.224442E-04
       134 -3.755713E-06  1.854680E-03  3.405760E-06
       135  1.099620E-04  1.842881E-03 -9.156871E-04
       136 -8.079747E-06  4.171791E-03  4.873225E-06
       137 -1.258119E-04  7.414626E-03  1.761121E-03
       138 -1.370880E-05  7.398693E-03  6.266617E-06
       139  9.849939E-05  7.414244E-03 -1.748600E-03
       140 -2.075410E-05  1.135354E-02  7.486030E-06
       141 -1.247529E-04  1.605970E-02  2.470210E-03
       142 -2.891740E-05  1.604200E-02  8.565432E-06
       143  6.697751E-05  1.605939E-02 -2.453048E-03
       144 -3.812736E-05  2.135720E-02  9.511605E-06
       145 -1.255122E-04  2.727923E-02  3.050174E-03
       146 -4.818549E-05  2.726127E-02  1.028944E-05
       147  2.922616E-05  2.727901E-02 -3.029576E-03
       148 -5.891475E-05  3.367485E-02  1.093888E-05
       149 -1.287262E-04  4.055457E-02  3.501477E-03
       150 -7.026244E-05  4.053917E-02  1.147779E-05
       151 -1.178935E-05  4.055442E-02 -3.478535E-03
       152 -8.207563E-05  4.779233E-02  1.187007E-05
       153 -1.343710E-04  5.537517E-02  3.823224E-03
       154 -9.421395E-05  5.535998E-02  1.212521E-05
       155 -5.405797E-05  5.537509E-02 -3.798972E-03
       156 -1.065573E-04  6.319568E-02  1.229908E-05
       157 -1.391601E-04  7.121972E-02  4.019137E-03
       158 -1.189732E-04  7.120484E-02  1.235690E-05
       159 -9.879218E-05  7.121972E-02 -3.994438E-03
       160 -1.314827E-04  7.937694E-02  1.237327E-05
       161 -5.482225E-07  6.703214E-04 -8.992194E-04
       162  1.082542E-04  2.028230E-03 -1.864778E-03
       163 -3.172686E-06  2.053080E-03 -1.879958E-03
       164 -1.145591E-04  2.028870E-03 -1.868140E-03
       165 -7.231167E-06  4.440777E-03 -2.727133E-03
       166  9.926446E-05  7.569656E-03 -3.535926E-03
       167 -1.288748E-05  7.604112E-03 -3.540094E-03
       168 -1.251128E-04  7.570514E-03 -3.542176E-03
       169 -1.980983E-05  1.157287E-02 -4.270606E-03
       170  6.744924E-05  1.620112E-02 -4.943456E-03
       171 -2.793723E-05  1.622631E-02 -4.947887E-03
       172 -1.233713E-04  1.620212E-02 -4.952022E-03
       173 -3.708950E-05  2.153397E-02 -5.557308E-03
       174  2.978391E-05  2.739321E-02 -6.100027E-03
       175 -4.707955E-05  2.741352E-02 -6.104792E-03
       176 -1.240102E-04  2.739430E-02 -6.110332E-03
       177 -5.776263E-05  3.381127E-02 -6.585963E-03
       178 -1.091181E-05  4.064247E-02 -6.998917E-03
       179 -6.905851E-05  4.065623E-02 -7.004235E-03
       180 -1.272321E-04  4.064373E-02 -7.010416E-03
       181 -8.073860E-05  4.788914E-02 -7.357611E-03
       182 -5.447239E-05  5.543408E-02 -7.642427E-03
       183 -9.283702E-05  5.544349E-02 -7.647942E-03
       184 -1.312455E-04  5.543548E-02 -7.654579E-03
       185 -1.051572E-04  6.325111E-02 -7.870903E-03
       186 -9.390855E-05  7.125927E-02 -8.026704E-03
       187 -1.175363E-04  7.124980E-02 -8.032982E-03
       188 -1.412475E-04  7.126066E-02 -8.039117E-03
       189 -1.300690E-04  7.939172E-02 -8.128537E-03
       190 -1.244719E-06  3.482043E-04 -1.633078E-06
       191 -1.171538E-04  1.843726E-03 -9.223836E-04
       192 -3.771728E-06  1.855148E-03 -3.387854E-06
       193  1.097275E-04  1.843349E-03  9.156452E-04
       194 -8.056606E-06  4.172506E-03 -4.888686E-06
       195 -1.253587E-04  7.415584E-03 -1.761133E-03
       196 -1.375570E-05  7.399666E-03 -6.299403E-06
       197  9.800134E-05  7.415212E-03  1.748539E-03
       198 -2.076315E-05  1.135474E-02 -7.525070E-06
       199 -1.240905E-04  1.606109E-02 -2.470233E-03
       200 -2.891625E-05  1.604337E-02 -8.632645E-06
       201  6.625653E-05  1.606078E-02  2.452957E-03
       202 -3.812753E-05  2.135879E-02 -9.561955E-06
       203 -1.246262E-04  2.728095E-02 -3.050198E-03
       204 -4.816116E-05  2.726298E-02 -1.035710E-05
       205  2.837647E-05  2.728073E-02  3.029505E-03
       206 -5.893040E-05  3.367681E-02 -1.101329E-05
       207 -1.276156E-04  4.055673E-02 -3.501517E-03
       208 -7.028195E-05  4.054133E-02 -1.154536E-05
       209 -1.288021E-05  4.055659E-02  3.478418E-03
       210 -8.206876E-05  4.779477E-02 -1.193479E-05
       211 -1.330437E-04  5.537777E-02 -3.823298E-03
       212 -9.421664E-05  5.536260E-02 -1.219987E-05
       213 -5.538693E-05  5.537770E-02  3.798874E-03
       214 -1.065433E-04  6.319839E-02 -1.239168E-05
       215 -1.377870E-04  7.122248E-02 -4.019258E-03
       216 -1.189650E-04  7.120756E-02 -1.246681E-05
       217 -1.001781E-04  7.122246E-02  3.994339E-03
       218 -1.315037E-04  7.937970E-02 -1.249795E-05
       219 -8.773489E-07  4.797196E-04 -9.212330E-09
       220 -3.709326E-06  1.970121E-03  9.298863E-04
       221 -3.616657E-06  1.959682E-03 -1.675291E-06
       222 -3.624262E-06  1.977877E-03 -4.328195E-09
       223 -3.607641E-06  1.959454E-03  1.672662E-06
       224 -3.484817E-06  1.970113E-03 -9.298846E-04
       225 -7.819922E-06  4.297371E-03  1.404787E-08
       226 -1.376982E-05  7.531893E-03  1.761236E-03
       227 -1.360944E-05  7.481798E-03 -3.134861E-06
       228 -1.354824E-05  7.511450E-03 -2.174102E-08
       229 -1.358221E-05  7.481302E-03  3.114883E-06
       230 -1.326667E-05  7.531896E-03 -1.761262E-03
       231 -2.058269E-05  1.146117E-02 -3.285334E-08
       232 -2.909495E-05  1.615700E-02  2.465911E-03
       233 -2.882322E-05  1.611525E-02 -4.316409E-06
       234 -2.880708E-05  1.613752E-02 -1.924263E-08
       235 -2.882455E-05  1.611457E-02  4.249080E-06
       236 -2.839557E-05  1.615700E-02 -2.465976E-03
       237 -3.799163E-05  2.144516E-02 -4.286270E-08
       238 -4.846914E-05  2.735720E-02  3.043983E-03
       239 -4.807355E-05  2.732012E-02 -5.172457E-06
       240 -4.804717E-05  2.733903E-02 -2.493618E-08
       241 -4.808964E-05  2.731927E-02  5.117607E-06
       242 -4.760011E-05  2.735721E-02 -3.044038E-03
       243 -5.884134E-05  3.374320E-02 -2.633337E-08
       244 -7.070476E-05  4.061326E-02  3.493987E-03
       245 -7.020019E-05  4.058479E-02 -5.773184E-06
       246 -7.016023E-05  4.059936E-02 -4.864556E-08
       247 -7.019513E-05  4.058372E-02  5.700105E-06
       248 -6.963545E-05  4.061328E-02 -3.494051E-03
       249 -8.203225E-05  4.784052E-02 -3.681623E-08
       250 -9.480483E-05  5.541331E-02  3.815370E-03
       251 -9.418491E-05  5.539248E-02 -6.110335E-06
       252 -9.416958E-05  5.540248E-02 -2.672258E-08
       253 -9.418106E-05  5.539119E-02  6.024965E-06
       254 -9.352271E-05  5.541332E-02 -3.815442E-03
       255 -1.065180E-04  6.322476E-02 -3.309609E-08
       256 -1.196562E-04  7.123549E-02  4.009071E-03
       257 -1.189716E-04  7.122247E-02 -6.231307E-06
       258 -1.189843E-04  7.123041E-02 -5.398671E-08
       259 -1.189752E-04  7.122110E-02  6.139868E-06
       260 -1.182677E-04  7.123551E-02 -4.009153E-03
       261 -1.314148E-04  7.937924E-02 -5.325536E-08

 stresses (elem, integ.pnt.,sxx,syy,szz,sxy,sxz,syz) for set EALL and time  0.1000000E+01

         1   1  6.094653E+01  6.135240E+01  3.391755E+02 -7.656211E+00  3.127969E+01  1.064998E+01
         1   2  5.789171E+01  5.800754E+01  3.312482E+02  2.254624E+00  6.434855E+00  2.579378E+01
         1   3  1.338038E+00 -1.765516E+01  7.487789E+01 -7.684137E+00  8.338203E+00 -7.890426E+00
         1   4  7.502736E-01 -1.808629E+01  7.313924E+01  2.226353E+00  1.683194E+00  7.386107E+00
         1   5 -1.705476E+01 -1.449438E+01  3.004377E+02 -2.706534E+00 -1.259621E+01  1.527689E-02
         1   6 -9.989781E+00 -9.898740E+00  3.153260E+02  9.536004E-01 -3.927868E+00 -8.562874E-01
         1   7 -8.278416E+00 -1.146114E+01  7.580540E+01 -3.504198E+00 -3.460434E+00  1.884410E+01
         1   8 -6.548033E+00 -1.053306E+01  7.985945E+01  1.546486E-01 -1.188470E+00  1.805863E+01
         2   1  5.783105E+01  5.801339E+01  3.315188E+02 -2.223280E+00 -6.443552E+00  2.581883E+01
         2   2  6.117792E+01  6.157869E+01  3.404144E+02  7.683277E+00 -3.134638E+01  1.074122E+01
         2   3  6.742562E-01 -1.808709E+01  7.340078E+01 -2.230582E+00 -1.720939E+00  7.385429E+00
         2   4  1.543844E+00 -1.744289E+01  7.608716E+01  7.674776E+00 -8.442370E+00 -7.895986E+00
         2   5 -1.002784E+01 -9.927835E+00  3.155960E+02 -9.370343E-01  3.812249E+00 -8.699940E-01
         2   6 -1.710118E+01 -1.455834E+01  3.015179E+02  2.715720E+00  1.257651E+01 -4.461880E-02
         2   7 -6.600225E+00 -1.056095E+01  8.013923E+01 -1.504818E-01  1.104465E+00  1.804659E+01
         2   8 -8.327780E+00 -1.150206E+01  7.693392E+01  3.497799E+00  3.460644E+00  1.878961E+01
         3   1 -1.542314E+00  1.744512E+01 -7.608208E+01 -7.675597E+00 -8.439135E+00 -7.867139E+00
         3   2 -6.779767E-01  1.808421E+01 -7.340826E+01  2.230698E+00 -1.715398E+00  7.393778E+00
         3   3 -6.117135E+01 -6.157506E+01 -3.404110E+02 -7.684081E+00 -3.132455E+01  1.076376E+01
         3   4 -5.782789E+01 -5.801249E+01 -3.315209E+02  2.223004E+00 -6.413840E+00  2.582636E+01
         3   5  8.326469E+00  1.149662E+01 -7.692893E+01 -3.494955E+00  3.455524E+00  1.882810E+01
         3   6  6.600264E+00  1.056098E+01 -8.013588E+01  1.510779E-01  1.109047E+00  1.805679E+01
         3   7  1.710358E+01  1.455452E+01 -3.015161E+02 -2.711005E+00  1.259502E+01 -3.136533E-02
         3   8  1.002677E+01  9.926656E+00 -3.155970E+02  9.379740E-01  3.852498E+00 -8.640022E-01
         4   1 -7.544463E-01  1.808179E+01 -7.314738E+01 -2.225427E+00  1.691402E+00  7.380920E+00
         4   2 -1.340855E+00  1.765428E+01 -7.488335E+01  7.684597E+00  8.345590E+00 -7.919073E+00
         4   3 -5.789174E+01 -5.800662E+01 -3.312432E+02 -2.252263E+00  6.464364E+00  2.579054E+01
         4   4 -6.094867E+01 -6.135062E+01 -3.391756E+02  7.657655E+00  3.130216E+01  1.062852E+01
         4   5  6.552798E+00  1.052988E+01 -7.985569E+01 -1.547462E-01 -1.179155E+00  1.805409E+01
         4   6  8.280333E+00  1.145992E+01 -7.580647E+01  3.501575E+00 -3.452402E+00  1.880346E+01
         4   7  9.987765E+00  9.895083E+00 -3.153199E+02 -9.501478E-01 -3.891041E+00 -8.530053E-01
         4   8  1.704881E+01  1.449427E+01 -3.004375E+02  2.705780E+00 -1.258189E+01 -2.491372E-03
         5   1  5.193390E+00  1.610984E-02  2.897297E+02  4.001843E+00  4.658297E+00  1.059138E+01
         5   2  3.749860E+00 -2.983925E+00  2.839316E+02 -2.448951E+00  2.226358E+00  8.475948E+00
         5   3  8.919305E+00  1.813701E+01  8.474110E+01  3.662548E+00  1.129099E+00  8.881441E+00
         5   4  8.993275E+00  1.826194E+01  8.414080E+01 -2.784917E+00  5.011675E-01  8.067821E+00
         5   5 -3.583868E+00 -5.213779E+00  2.629445E+02 -6.583011E-01 -2.598750E+00  2.118740E+00
         5   6 -1.874828E+00 -3.743954E+00  2.663793E+02 -1.447121E-01 -1.258099E+00  2.252109E+00
         5   7 -2.677839E+00 -5.225000E+00  6.822343E+01 -6.535198E-01 -6.099139E-01  1.654457E+01
         5   8 -2.029060E+00 -4.591029E+00  6.977992E+01 -1.230443E-01 -2.378693E-01  1.513094E+01
         6   1  3.813691E+00 -2.950340E+00  2.842328E+02  2.431230E+00 -2.310774E+00  8.478825E+00
         6   2  5.188104E+00  3.082136E-02  2.907458E+02 -4.014131E+00 -4.715764E+00  1.059077E+01
         6   3  9.065329E+00  1.830014E+01  8.444165E+01  2.795247E+00 -5.496389E-01  8.061221E+00
         6   4  8.908603E+00  1.815249E+01  8.573700E+01 -3.654256E+00 -1.160989E+00  8.846591E+00
         6   5 -1.887706E+00 -3.750193E+00  2.666182E+02  1.427732E-01  1.143937E+00  2.248541E+00
         6   6 -3.601245E+00 -5.223733E+00  2.638474E+02  6.691121E-01  2.568980E+00  2.091741E+00
         6   7 -2.039817E+00 -4.595520E+00  7.002345E+01  1.294732E-01  1.685700E-01  1.512316E+01
         6   8 -2.690200E+00 -5.230673E+00  6.913913E+01  6.558509E-01  5.949565E-01  1.650298E+01
         7   1 -8.924296E+00 -1.816302E+01 -8.575135E+01  3.654200E+00 -1.155356E+00  8.887765E+00
         7   2 -9.069873E+00 -1.830247E+01 -8.443181E+01 -2.796646E+00 -5.373009E-01  8.067384E+00
         7   3 -5.190494E+00 -3.110888E-02 -2.907521E+02  4.012963E+00 -4.701735E+00  1.061052E+01
         7   4 -3.820394E+00  2.944925E+00 -2.842380E+02 -2.435808E+00 -2.266770E+00  8.478708E+00
         7   5  2.686224E+00  5.222075E+00 -6.915492E+01 -6.544645E-01  5.975553E-01  1.653839E+01
         7   6  2.035836E+00  4.581420E+00 -7.004922E+01 -1.286936E-01  1.770773E-01  1.512972E+01
         7   7  3.610110E+00  5.230591E+00 -2.638553E+02 -6.684813E-01  2.587463E+00  2.106576E+00
         7   8  1.893574E+00  3.749545E+00 -2.666298E+02 -1.451769E-01  1.187194E+00  2.245227E+00
         8   1 -8.992201E+00 -1.826856E+01 -8.413028E+01  2.785975E+00  5.048703E-01  8.058322E+00
         8   2 -8.926946E+00 -1.814582E+01 -8.474852E+01 -3.658529E+00  1.123383E+00  8.839778E+00
         8   3 -3.751699E+00  2.972444E+00 -2.839399E+02  2.453122E+00  2.266098E+00  8.474789E+00
         8   4 -5.193791E+00 -2.003503E-02 -2.897355E+02 -3.995145E+00  4.674058E+00  1.057833E+01
         8   5  2.017072E+00  4.575949E+00 -6.980778E+01  1.241065E-01 -2.286850E-01  1.512203E+01
         8   6  2.671953E+00  5.222201E+00 -6.823288E+01  6.575272E-01 -6.095732E-01  1.650402E+01
         8   7  1.863768E+00  3.734408E+00 -2.664002E+02  1.443505E-01 -1.219343E+00  2.246160E+00
         8   8  3.583948E+00  5.210849E+00 -2.629527E+02  6.650886E-01 -2.584050E+00  2.100991E+00
         9   1  2.779618E+00  5.925131E+00  2.468363E+02 -3.504105E-01  6.752905E-01  7.373072E+00
         9   2  2.122559E+00  5.080172E+00  2.457744E+02  8.299897E-01 -1.696907E-01  5.977834E+00
         9   3  6.310262E-01  1.121914E+00  6.579887E+01 -4.271130E-01  3.774009E-01  1.221143E+01
         9   4  1.967827E-01  3.078863E-01  6.543856E+01  7.674157E-01  1.314778E-01  1.046419E+01
         9   5 -9.181634E-01 -2.027246E+00  2.214252E+02 -2.031506E-01 -9.639662E-01  4.384516E+00
         9   6 -4.996140E-01 -1.435379E+00  2.222561E+02 -1.255432E-01 -6.911601E-01  3.916358E+00
         9   7 -9.051229E-01 -2.182856E+00  5.850912E+01 -7.738996E-02 -9.256582E-02  1.477412E+01
         9   8 -6.731382E-01 -1.723705E+00  5.901670E+01 -6.746459E-03 -3.736867E-02  1.294461E+01
        10   1  2.134512E+00  5.083657E+00  2.460008E+02 -8.305252E-01  8.216417E-02  5.978852E+00
        10   2  2.805608E+00  5.932709E+00  2.476743E+02  3.562270E-01 -7.200932E-01  7.359795E+00
        10   3  1.973072E-01  3.048064E-01  6.565773E+01 -7.683149E-01 -1.895209E-01  1.045998E+01
        10   4  6.446155E-01  1.117889E+00  6.662277E+01  4.228518E-01 -4.080381E-01  1.217830E+01
        10   5 -5.164777E-01 -1.441778E+00  2.224423E+02  1.258256E-01  5.897103E-01  3.916474E+00
        10   6 -9.339786E-01 -2.030338E+00  2.221408E+02  1.968385E-01  9.285561E-01  4.367712E+00
        10   7 -6.772207E-01 -1.725078E+00  5.920799E+01 -1.477924E-03 -2.897782E-02  1.294033E+01
        10   8 -9.033838E-01 -2.180179E+00  5.923065E+01  8.172347E-02  6.912514E-02  1.474058E+01
        11   1 -6.391079E-01 -1.127298E+00 -6.662981E+01 -4.191338E-01 -4.007863E-01  1.221110E+01
        11   2 -1.864374E-01 -3.076803E-01 -6.566862E+01  7.684015E-01 -1.876657E-01  1.046950E+01
        11   3 -2.806223E+00 -5.935934E+00 -2.476783E+02 -3.476520E-01 -7.028652E-01  7.379190E+00
        11   4 -2.133235E+00 -5.083887E+00 -2.460084E+02  8.318186E-01  1.125394E-01  5.978449E+00
        11   5  9.088027E-01  2.188873E+00 -5.923463E+01 -8.794707E-02  6.672488E-02  1.477012E+01
        11   6  6.857682E-01  1.732273E+00 -5.920378E+01  3.967107E-04 -2.303765E-02  1.294501E+01
        11   7  9.392308E-01  2.036419E+00 -2.221400E+02 -1.965116E-01  9.365289E-01  4.380572E+00
        11   8  5.210721E-01  1.440764E+00 -2.224470E+02 -1.269862E-01  6.155493E-01  3.916640E+00
        12   1 -1.931384E-01 -3.056745E-01 -6.545112E+01 -7.708250E-01  1.411488E-01  1.046141E+01
        12   2 -6.251138E-01 -1.111784E+00 -6.580286E+01  4.223979E-01  3.744686E-01  1.217601E+01
        12   3 -2.130139E+00 -5.079500E+00 -2.457874E+02 -8.346700E-01 -1.377717E-01  5.973961E+00
        12   4 -2.780232E+00 -5.921151E+00 -2.468459E+02  3.479911E-01  6.915985E-01  7.357893E+00
        12   5  6.778520E-01  1.727478E+00 -5.901529E+01  8.730366E-03 -3.181188E-02  1.293955E+01
        12   6  9.001430E-01  2.173295E+00 -5.852308E+01  7.969496E-02 -8.796532E-02  1.474696E+01
        12   7  5.117903E-01  1.437174E+00 -2.222591E+02  1.271132E-01 -6.529509E-01  3.914403E+00
        12   8  9.270781E-01  2.026939E+00 -2.214271E+02  2.022302E-01 -9.444491E-01  4.369795E+00
        13   1  3.556474E-01  7.115342E-01  2.035929E+02  3.223717E-01 -2.482250E-01  6.349764E+00
        13   2  2.009091E-01  2.703891E-01  2.035198E+02 -7.601721E-02 -3.915380E-01  5.254859E+00
        13   3  9.199120E-01  2.182802E+00  5.511431E+01  2.113834E-01  7.912281E-02  1.303237E+01
        13   4  7.939754E-01  1.869384E+00  5.518251E+01 -2.071740E-01  3.523278E-02  1.137787E+01
        13   5 -3.401903E-01 -8.458832E-01  1.791038E+02 -1.129114E-01 -6.290159E-01  5.125762E+00
        13   6 -1.889421E-01 -5.043122E-01  1.794527E+02 -2.759656E-02 -5.540476E-01  4.371062E+00
        13   7 -4.163131E-01 -9.249541E-01  4.744109E+01 -2.620365E-02 -1.042065E-02  1.413725E+01
        13   8 -2.890618E-01 -6.310349E-01  4.777402E+01  2.395973E-02 -2.503715E-03  1.237596E+01
        14   1  2.019767E-01  2.709393E-01  2.036891E+02  7.853340E-02  3.018714E-01  5.256306E+00
        14   2  3.493042E-01  7.086398E-01  2.042137E+02 -3.332983E-01  2.142929E-01  6.340077E+00
        14   3  7.963115E-01  1.869749E+00  5.535162E+01  2.026352E-01 -9.149640E-02  1.137148E+01
        14   4  9.177361E-01  2.180485E+00  5.573928E+01 -2.087329E-01 -1.035984E-01  1.299432E+01
        14   5 -1.945275E-01 -5.083380E-01  1.795885E+02  2.850251E-02  4.655800E-01  4.371624E+00
        14   6 -3.398752E-01 -8.473442E-01  1.796147E+02  1.084325E-01  5.933146E-01  5.116300E+00
        14   7 -2.997837E-01 -6.394573E-01  4.790582E+01 -1.788132E-02 -5.445312E-02  1.237264E+01
        14   8 -4.342378E-01 -9.409119E-01  4.794245E+01  2.270535E-02 -1.001645E-02  1.411418E+01
        15   1 -9.084754E-01 -2.173747E+00 -5.573255E+01  2.020658E-01 -1.068563E-01  1.303029E+01
        15   2 -7.964536E-01 -1.870985E+00 -5.536310E+01 -2.035841E-01 -8.748409E-02  1.137811E+01
        15   3 -3.483113E-01 -7.140633E-01 -2.042182E+02  3.337555E-01  2.290531E-01  6.350354E+00
        15   4 -1.973526E-01 -2.740551E-01 -2.036898E+02 -7.766643E-02  3.231482E-01  5.259973E+00
        15   5  4.299301E-01  9.381610E-01 -4.794443E+01 -2.354511E-02 -1.032350E-02  1.413745E+01
        15   6  2.970610E-01  6.449621E-01 -4.789275E+01  1.826969E-02 -5.195494E-02  1.237696E+01
        15   7  3.315113E-01  8.420230E-01 -1.796162E+02 -1.108244E-01  6.022915E-01  5.125413E+00
        15   8  1.862699E-01  5.062065E-01 -1.795830E+02 -2.838534E-02  4.936531E-01  4.379806E+00
        16   1 -7.940957E-01 -1.869543E+00 -5.519302E+01  2.088864E-01  3.991821E-02  1.137064E+01
        16   2 -9.135233E-01 -2.179989E+00 -5.510756E+01 -2.121017E-01  8.382704E-02  1.300156E+01
        16   3 -1.877642E-01 -2.666344E-01 -2.035146E+02  7.867974E-02 -3.633223E-01  5.257789E+00
        16   4 -3.498216E-01 -7.098536E-01 -2.035902E+02 -3.269321E-01 -2.422011E-01  6.341922E+00
        16   5  2.924048E-01  6.436712E-01 -4.775631E+01 -2.280527E-02  6.312205E-03  1.237338E+01
        16   6  4.176031E-01  9.332666E-01 -4.743589E+01  2.443500E-02 -7.975677E-03  1.411896E+01
        16   7  1.934197E-01  5.107937E-01 -1.794394E+02  2.841839E-02 -5.251766E-01  4.378595E+00
        16   8  3.335426E-01  8.445259E-01 -1.790996E+02  1.069849E-01 -6.169408E-01  5.116389E+00
        17   1  3.094923E-01  8.262697E-01  1.611438E+02  3.363491E-02 -4.327719E-01  5.649681E+00
        17   2  1.985229E-01  5.572140E-01  1.612092E+02  1.076585E-01 -5.102167E-01  4.823360E+00
        17   3  2.576727E-01  5.934632E-01  4.322178E+01 -4.701596E-02  3.201506E-02  1.365128E+01
        17   4  1.176751E-01  2.814952E-01  4.324684E+01  3.648579E-02  6.971792E-03  1.190243E+01
        17   5 -3.090760E-01 -5.385164E-01  1.365927E+02 -2.316916E-02 -4.546193E-01  5.627603E+00
        17   6 -1.658518E-01 -3.340613E-01  1.367923E+02 -2.128265E-01 -5.377972E-01  4.657017E+00
        17   7 -2.777120E-01 -7.663414E-01  3.626737E+01  6.521031E-02  2.430050E-02  1.370899E+01
        17   8 -1.190692E-01 -4.110776E-01  3.652993E+01  2.194474E-02  6.024813E-04  1.203632E+01
        18   1  2.011723E-01  5.566862E-01  1.613255E+02 -1.108977E-01  4.200764E-01  4.821738E+00
        18   2  3.254457E-01  8.332609E-01  1.615885E+02 -3.411647E-02  3.930259E-01  5.635865E+00
        18   3  1.296438E-01  2.832081E-01  4.336775E+01 -3.075467E-02 -6.745024E-02  1.189521E+01
        18   4  2.647079E-01  5.890165E-01  4.366162E+01  4.437130E-02 -5.440688E-02  1.361457E+01
        18   5 -1.758729E-01 -3.367889E-01  1.368796E+02  2.124961E-01  4.458304E-01  4.655611E+00
        18   6 -3.073622E-01 -5.370061E-01  1.369400E+02  2.543515E-02  4.148402E-01  5.612090E+00
        18   7 -1.280069E-01 -4.146560E-01  3.661881E+01 -1.631770E-02 -4.705337E-02  1.203011E+01
        18   8 -2.895031E-01 -7.765998E-01  3.660962E+01 -6.226133E-02 -4.250884E-02  1.367352E+01
        19   1 -2.645239E-01 -5.892631E-01 -4.366549E+01 -4.337179E-02 -5.297689E-02  1.365084E+01
        19   2 -1.339348E-01 -2.812835E-01 -4.336588E+01  3.342433E-02 -5.995727E-02  1.190138E+01
        19   3 -3.194980E-01 -8.302394E-01 -1.615932E+02  2.805242E-02  4.062674E-01  5.650624E+00
        19   4 -1.977174E-01 -5.543832E-01 -1.613247E+02  1.113742E-01  4.576747E-01  4.826263E+00
        19   5  2.914074E-01  7.732326E-01 -3.661155E+01  7.008577E-02 -3.534727E-02  1.370436E+01
        19   6  1.205156E-01  4.141632E-01 -3.663188E+01  1.695589E-02 -3.936938E-02  1.204047E+01
        19   7  3.027625E-01  5.374899E-01 -1.369423E+02 -2.558819E-02  4.345525E-01  5.630549E+00
        19   8  1.659474E-01  3.366709E-01 -1.368931E+02 -2.117479E-01  4.862467E-01  4.656757E+00
        20   1 -1.181813E-01 -2.757316E-01 -4.324230E+01 -3.247180E-02  1.281046E-02  1.189508E+01
        20   2 -2.548661E-01 -5.846414E-01 -4.322317E+01  4.909992E-02  3.445431E-02  1.361983E+01
        20   3 -1.991031E-01 -5.563173E-01 -1.612065E+02 -1.041316E-01 -4.793278E-01  4.824819E+00
        20   4 -3.216088E-01 -8.323420E-01 -1.611524E+02 -3.313778E-02 -4.161247E-01  5.640135E+00
        20   5  1.228161E-01  4.100843E-01 -3.654004E+01 -2.509830E-02  5.828418E-03  1.203487E+01
        20   6  2.921856E-01  7.733235E-01 -3.626586E+01 -6.722385E-02  2.011044E-02  1.367323E+01
        20   7  1.671670E-01  3.308723E-01 -1.368022E+02  2.066773E-01 -5.067105E-01  4.654198E+00
        20   8  3.034923E-01  5.317150E-01 -1.366021E+02  2.353964E-02 -4.432038E-01  5.613200E+00
        21   1  3.001033E-01  7.038937E-01  1.186377E+02  1.335193E-01 -5.957187E-01  5.316043E+00