
 displacements (vx,vy,vz) for set N1 and time  0.1000000E-04

       100 -1.119337E-17 -1.462502E-02  9.194441E-19
