
 displacements (vx,vy,vz) for set NALL and time  0.1000000E+01

         1  0.000000E+00  0.000000E+00  0.000000E+00
         2  0.000000E+00  0.000000E+00  0.000000E+00
         3  0.000000E+00  0.000000E+00  0.000000E+00
         4  0.000000E+00  0.000000E+00  0.000000E+00
         5 -9.555809E-04  1.136410E-01 -9.565282E-04
         6  9.555809E-04  1.136410E-01 -9.565282E-04
         7 -9.542836E-04  1.136310E-01 -9.565282E-04
         8  9.542836E-04  1.136310E-01 -9.565282E-04
         9  0.000000E+00  0.000000E+00  0.000000E+00
        10  0.000000E+00  0.000000E+00  0.000000E+00
        11  0.000000E+00  0.000000E+00  0.000000E+00
        12  0.000000E+00  0.000000E+00  0.000000E+00
        13  0.000000E+00  0.000000E+00  0.000000E+00
        14  0.000000E+00  0.000000E+00  0.000000E+00
        15  0.000000E+00  0.000000E+00  0.000000E+00
        16  0.000000E+00  0.000000E+00  0.000000E+00
        17  0.000000E+00  0.000000E+00  0.000000E+00
        18  0.000000E+00  0.000000E+00  0.000000E+00
        19  0.000000E+00  0.000000E+00  0.000000E+00
        20  0.000000E+00  0.000000E+00  0.000000E+00
        21 -4.678684E-04  1.129620E-01 -9.565282E-04
        22  1.507217E-15  1.128720E-01 -9.565282E-04
        23  4.678684E-04  1.129620E-01 -9.565282E-04
        24  3.716985E-04  1.136797E-01 -9.565282E-04
        25  3.152469E-06  1.136201E-01 -9.565282E-04
        26 -3.680104E-04  1.136739E-01 -9.565282E-04
        27 -4.658408E-04  1.129528E-01 -9.565282E-04
        28  5.930367E-16  1.128663E-01 -9.565282E-04
        29  4.658408E-04  1.129528E-01 -9.565282E-04
        30  3.680104E-04  1.136739E-01 -9.565282E-04
        31 -3.152469E-06  1.136201E-01 -9.565282E-04
        32 -3.716985E-04  1.136797E-01 -9.565282E-04
        33 -7.300974E-04  1.471887E-03  2.243483E-03
        34 -4.703400E-04  4.931710E-03  4.330768E-03
        35 -4.936982E-04  1.063440E-02  6.083804E-03
        36 -3.713308E-04  1.777066E-02  7.493734E-03
        37 -2.962908E-04  2.632781E-02  8.546939E-03
        38 -1.922875E-04  3.577453E-02  9.277576E-03
        39 -1.011357E-04  4.591689E-02  9.668815E-03
        40 -2.859884E-06  5.636041E-02  9.737119E-03
        41  9.098820E-05  6.681759E-02  9.478670E-03
        42  1.859923E-04  7.696095E-02  8.908956E-03
        43  2.909488E-04  8.646552E-02  8.025178E-03
        44  3.860675E-04  9.503980E-02  6.842624E-03
        45  4.636167E-04  1.022468E-01  5.358002E-03
        46  5.340691E-04  1.079691E-01  3.574300E-03
        47  7.584530E-04  1.118003E-01  1.445174E-03
        48 -7.584530E-04  1.118003E-01  1.445174E-03
        49 -5.340691E-04  1.079691E-01  3.574300E-03
        50 -4.636167E-04  1.022468E-01  5.358002E-03
        51 -3.860675E-04  9.503980E-02  6.842624E-03
        52 -2.909488E-04  8.646552E-02  8.025178E-03
        53 -1.859923E-04  7.696095E-02  8.908956E-03
        54 -9.098820E-05  6.681759E-02  9.478670E-03
        55  2.859884E-06  5.636041E-02  9.737119E-03
        56  1.011357E-04  4.591689E-02  9.668815E-03
        57  1.922875E-04  3.577453E-02  9.277576E-03
        58  2.962908E-04  2.632781E-02  8.546939E-03
        59  3.713308E-04  1.777066E-02  7.493734E-03
        60  4.936982E-04  1.063440E-02  6.083804E-03
        61  4.703400E-04  4.931710E-03  4.330768E-03
        62  7.300974E-04  1.471887E-03  2.243483E-03
        63  7.330277E-04  1.457471E-03 -2.256265E-03
        64  4.690912E-04  4.888974E-03 -4.375341E-03
        65  4.933874E-04  1.055678E-02 -6.195981E-03
        66  3.706212E-04  1.765130E-02 -7.708716E-03
        67  2.953532E-04  2.617409E-02 -8.905739E-03
        68  1.909263E-04  3.559020E-02 -9.811427E-03
        69  9.985907E-05  4.571422E-02 -1.040405E-02
        70  1.374009E-06  5.615020E-02 -1.068593E-02
        71 -9.231941E-05  6.661399E-02 -1.064195E-02
        72 -1.873179E-04  7.677496E-02 -1.027441E-02
        73 -2.918062E-04  8.630910E-02 -9.568772E-03
        74 -3.870404E-04  9.491857E-02 -8.531732E-03
        75 -4.639344E-04  1.021661E-01 -7.153232E-03
        76 -5.341515E-04  1.079235E-01 -5.438561E-03
        77 -7.572662E-04  1.117844E-01 -3.343968E-03
        78 -7.330277E-04  1.457471E-03 -2.256265E-03
        79 -4.690912E-04  4.888974E-03 -4.375341E-03
        80 -4.933874E-04  1.055678E-02 -6.195981E-03
        81 -3.706212E-04  1.765130E-02 -7.708716E-03
        82 -2.953532E-04  2.617409E-02 -8.905739E-03
        83 -1.909263E-04  3.559020E-02 -9.811427E-03
        84 -9.985907E-05  4.571422E-02 -1.040405E-02
        85 -1.374009E-06  5.615020E-02 -1.068593E-02
        86  9.231941E-05  6.661399E-02 -1.064195E-02
        87  1.873179E-04  7.677496E-02 -1.027441E-02
        88  2.918062E-04  8.630910E-02 -9.568772E-03
        89  3.870404E-04  9.491857E-02 -8.531732E-03
        90  4.639344E-04  1.021661E-01 -7.153232E-03
        91  5.341515E-04  1.079235E-01 -5.438561E-03
        92  7.572662E-04  1.117844E-01 -3.343968E-03
        93  0.000000E+00  0.000000E+00  0.000000E+00
        94  0.000000E+00  0.000000E+00  0.000000E+00
        95  0.000000E+00  0.000000E+00  0.000000E+00
        96  0.000000E+00  0.000000E+00  0.000000E+00
        97  0.000000E+00  0.000000E+00  0.000000E+00
        98  1.273940E-15  1.130874E-01 -9.565282E-04
        99 -1.607234E-06  1.133036E-01 -9.565282E-04
       100  1.024815E-15  1.131210E-01 -9.565282E-04
       101  1.607234E-06  1.133036E-01 -9.565282E-04
       102  8.138922E-16  1.130830E-01 -9.565282E-04
       103  4.935375E-17  1.783040E-03  2.186242E-03
       104  2.321764E-04  5.170304E-03  4.370746E-03
       105  1.289149E-16  5.219237E-03  4.400432E-03
       106 -2.321764E-04  5.170304E-03  4.370746E-03
       107  2.301303E-16  1.086624E-02  6.092275E-03
       108  1.856303E-04  1.791697E-02  7.518243E-03
       109  3.501622E-16  1.797808E-02  7.519772E-03
       110 -1.856303E-04  1.791697E-02  7.518243E-03
       111  4.807983E-16  2.646986E-02  8.563400E-03
       112  9.595994E-05  3.585323E-02  9.299029E-03
       113  6.303124E-16  3.587872E-02  9.297690E-03
       114 -9.595994E-05  3.585323E-02  9.299029E-03
       115  7.751655E-16  4.596581E-02  9.688506E-03
       116  1.518869E-06  5.636071E-02  9.759087E-03
       117  9.230152E-16  5.636202E-02  9.757670E-03
       118 -1.518869E-06  5.636071E-02  9.759087E-03
       119  1.059368E-15  6.677404E-02  9.500054E-03
       120 -9.327291E-05  7.689123E-02  8.933498E-03
       121  1.176915E-15  7.686199E-02  8.930702E-03
       122  9.327291E-05  7.689123E-02  8.933498E-03
       123  1.304594E-15  8.632351E-02  8.050042E-03
       124 -1.921755E-04  9.487106E-02  6.864854E-03
       125  1.397360E-15  9.482185E-02  6.867608E-03
       126  1.921755E-04  9.487106E-02  6.864854E-03
       127  1.433627E-15  1.020388E-01  5.377105E-03
       128 -2.708661E-04  1.077869E-01  3.606175E-03
       129  1.473021E-15  1.076502E-01  3.595796E-03
       130  2.708661E-04  1.077869E-01  3.606175E-03
       131  1.510133E-15  1.114330E-01  1.477409E-03
       132  2.286538E-06  1.020112E-03 -5.108667E-06
       133 -2.364444E-04  4.764570E-03  2.103054E-03
       134  1.519962E-06  4.795390E-03 -2.004206E-05
       135  2.377651E-04  4.743353E-03 -2.144344E-03
       136  1.181494E-06  1.029473E-02 -5.146071E-05
       137 -1.849931E-04  1.764076E-02  3.643027E-03
       138  3.184929E-07  1.759565E-02 -1.047926E-04
       139  1.850712E-04  1.758271E-02 -3.853306E-03
       140 -1.349894E-07  2.608354E-02 -1.759528E-04
       141 -9.641621E-05  3.566658E-02  4.455620E-03
       142 -4.167997E-07  3.561321E-02 -2.653338E-04
       143  9.533333E-05  3.557633E-02 -4.986905E-03
       144 -5.818368E-07  4.575791E-02 -3.662778E-04
       145 -2.010752E-06  5.630901E-02  4.579949E-03
       146 -6.854252E-07  5.626023E-02 -4.745086E-04
       147  5.750432E-07  5.620606E-02 -5.528817E-03
       148 -6.273362E-07  6.676386E-02 -5.827577E-04
       149  9.398587E-05  7.698320E-02  4.059033E-03
       150 -4.220097E-07  7.695833E-02 -6.847309E-04
       151 -9.505439E-05  7.689220E-02 -5.427518E-03
       152 -9.394280E-08  8.653099E-02 -7.748426E-04
       153  1.876888E-04  9.512809E-02  2.949486E-03
       154  3.602938E-07  9.512964E-02 -8.477211E-04
       155 -1.877145E-04  9.506890E-02 -4.643525E-03
       156  8.849758E-07  1.024904E-01 -9.018918E-04
       157  2.917530E-04  1.081752E-01  1.250306E-03
       158  1.571714E-06  1.082122E-01 -9.352911E-04
       159 -2.898464E-04  1.081532E-01 -3.119407E-03
       160  2.706207E-06  1.120808E-01 -9.521155E-04
       161 -3.430388E-17  1.768937E-03 -2.201612E-03
       162  2.322364E-04  5.125872E-03 -4.420433E-03
       163 -4.467282E-17  5.175307E-03 -4.451746E-03
       164 -2.322364E-04  5.125872E-03 -4.420433E-03
       165 -3.848494E-17  1.078703E-02 -6.210848E-03
       166  1.853727E-04  1.779683E-02 -7.738470E-03
       167 -1.248340E-17  1.785838E-02 -7.741952E-03
       168 -1.853727E-04  1.779683E-02 -7.738470E-03
       169  2.713739E-17  2.631514E-02 -8.927561E-03
       170  9.534033E-05  3.566803E-02 -9.836047E-03
       171  8.616358E-17  3.569372E-02 -9.835740E-03
       172 -9.534033E-05  3.566803E-02 -9.836047E-03
       173  1.517654E-16  4.576220E-02 -1.042582E-02
       174  7.683935E-07  5.614965E-02 -1.070797E-02
       175  2.174859E-16  5.615109E-02 -1.070658E-02
       176 -7.683935E-07  5.614965E-02 -1.070797E-02
       177  2.731398E-16  6.656953E-02 -1.066143E-02
       178 -9.390551E-05  7.670437E-02 -1.029583E-02
       179  3.461596E-16  7.667537E-02 -1.029200E-02
       180  9.390551E-05  7.670437E-02 -1.029583E-02
       181  4.076574E-16  8.616601E-02 -9.588242E-03
       182 -1.924543E-04  9.474903E-02 -8.548800E-03
       183  4.567122E-16  9.470031E-02 -8.549717E-03
       184  1.924543E-04  9.474903E-02 -8.548800E-03
       185  5.187343E-16  1.019566E-01 -7.166383E-03
       186 -2.706306E-04  1.077406E-01 -5.465410E-03
       187  5.544407E-16  1.076048E-01 -5.453519E-03
       188  2.706306E-04  1.077406E-01 -5.465410E-03
       189  5.829315E-16  1.114155E-01 -3.371716E-03
       190 -2.286538E-06  1.020112E-03 -5.108667E-06
       191 -2.377651E-04  4.743353E-03 -2.144344E-03
       192 -1.519962E-06  4.795390E-03 -2.004206E-05
       193  2.364444E-04  4.764570E-03  2.103054E-03
       194 -1.181494E-06  1.029473E-02 -5.146071E-05
       195 -1.850712E-04  1.758271E-02 -3.853306E-03
       196 -3.184929E-07  1.759565E-02 -1.047926E-04
       197  1.849931E-04  1.764076E-02  3.643027E-03
       198  1.349894E-07  2.608354E-02 -1.759528E-04
       199 -9.533333E-05  3.557633E-02 -4.986905E-03
       200  4.167997E-07  3.561321E-02 -2.653338E-04
       201  9.641621E-05  3.566658E-02  4.455620E-03
       202  5.818368E-07  4.575791E-02 -3.662778E-04
       203 -5.750432E-07  5.620606E-02 -5.528817E-03
       204  6.854252E-07  5.626023E-02 -4.745086E-04
       205  2.010752E-06  5.630901E-02  4.579949E-03
       206  6.273362E-07  6.676386E-02 -5.827577E-04
       207  9.505439E-05  7.689220E-02 -5.427518E-03
       208  4.220097E-07  7.695833E-02 -6.847309E-04
       209 -9.398587E-05  7.698320E-02  4.059033E-03
       210  9.394280E-08  8.653099E-02 -7.748426E-04
       211  1.877145E-04  9.506890E-02 -4.643525E-03
       212 -3.602938E-07  9.512964E-02 -8.477211E-04
       213 -1.876888E-04  9.512809E-02  2.949486E-03
       214 -8.849758E-07  1.024904E-01 -9.018918E-04
       215  2.898464E-04  1.081532E-01 -3.119407E-03
       216 -1.571714E-06  1.082122E-01 -9.352911E-04
       217 -2.917530E-04  1.081752E-01  1.250306E-03
       218 -2.706207E-06  1.120808E-01 -9.521155E-04
       219  1.034649E-17  1.326246E-03 -6.650262E-06
       220  8.887800E-17  5.036563E-03  2.138388E-03
       221 -8.402029E-07  5.023324E-03 -2.223172E-05
       222  4.474393E-17  5.058224E-03 -2.283811E-05
       223  8.402029E-07  5.023324E-03 -2.223172E-05
       224  7.499418E-19  5.014458E-03 -2.185903E-03
       225  9.619123E-17  1.053654E-02 -5.477685E-05
       226  2.583752E-16  1.783870E-02  3.665735E-03
       227 -1.788424E-07  1.773079E-02 -1.072600E-04
       228  1.675456E-16  1.778216E-02 -1.079493E-04
       229  1.788424E-07  1.773079E-02 -1.072600E-04
       230  7.921493E-17  1.778004E-02 -3.882659E-03
       231  2.571172E-16  2.623214E-02 -1.787734E-04
       232  4.934175E-16  3.576595E-02  4.474948E-03
       233  2.071353E-07  3.568685E-02 -2.667917E-04
       234  3.533868E-16  3.570799E-02 -2.672177E-04
       235 -2.071353E-07  3.568685E-02 -2.667917E-04
       236  2.211069E-16  3.567496E-02 -5.010239E-03
       237  4.653380E-16  4.580849E-02 -3.673598E-04
       238  7.472455E-16  5.631132E-02  4.600284E-03
       239  3.497055E-07  5.626130E-02 -4.745561E-04
       240  5.751029E-16  5.626216E-02 -4.745650E-04
       241 -3.497055E-07  5.626130E-02 -4.745561E-04
       242  3.935503E-16  5.620760E-02 -5.549243E-03
       243  6.665609E-16  6.671672E-02 -5.817348E-04
       244  9.786990E-16  7.688802E-02  4.082260E-03
       245  2.064249E-07  7.688934E-02 -6.832730E-04
       246  7.509653E-16  7.686842E-02 -6.828702E-04
       247 -2.064249E-07  7.688934E-02 -6.832730E-04
       248  5.630097E-16  7.679626E-02 -5.446839E-03
       249  8.421699E-16  8.638336E-02 -7.720812E-04
       250  1.145420E-15  9.493120E-02  2.970773E-03
       251 -1.958390E-07  9.499235E-02 -8.454124E-04
       252  9.380647E-16  9.494676E-02 -8.447506E-04
       253  1.958390E-07  9.499235E-02 -8.454124E-04
       254  6.927922E-16  9.487147E-02 -4.658294E-03
       255  9.861496E-16  1.022487E-01 -8.984889E-04
       256  1.251653E-15  1.078652E-01  1.282499E-03
       257 -8.809387E-07  1.079939E-01 -9.328762E-04
       258  1.011173E-15  1.079340E-01 -9.323213E-04
       259  8.809387E-07  1.079939E-01 -9.328762E-04
       260  7.803621E-16  1.078428E-01 -3.145532E-03
       261  1.024923E-15  1.117148E-01 -9.500800E-04

 stresses (elem, integ.pnt.,sxx,syy,szz,sxy,sxz,syz) for set EALL and time  0.1000000E+01

         1   1  1.524637E+02  1.550268E+02  8.333531E+02 -1.911955E+01  7.621813E+01  4.878988E+01
         1   2  1.455181E+02  1.473791E+02  8.151407E+02  5.718257E+00  1.557732E+01  8.476252E+01
         1   3  2.104950E+00 -4.453468E+01  1.780892E+02 -1.953529E+01  2.006482E+01  8.361429E+00
         1   4  4.638160E-01 -4.597604E+01  1.733358E+02  5.488643E+00  4.104749E+00  4.367404E+01
         1   5 -4.257605E+01 -3.479728E+01  6.760649E+02 -7.186539E+00 -3.304133E+01  1.931474E+01
         1   6 -2.522670E+01 -2.405426E+01  7.119640E+02  2.175849E+00 -1.095311E+01  1.494566E+01
         1   7 -2.128784E+01 -2.769928E+01  1.648364E+02 -9.039825E+00 -8.538986E+00  8.259221E+01
         1   8 -1.725155E+01 -2.620464E+01  1.736642E+02  3.349338E-01 -2.744889E+00  7.642535E+01
         2   1  1.455181E+02  1.473791E+02  8.151407E+02 -5.718257E+00 -1.557732E+01  8.476252E+01
         2   2  1.524637E+02  1.550268E+02  8.333531E+02  1.911955E+01 -7.621813E+01  4.878988E+01
         2   3  4.638160E-01 -4.597604E+01  1.733358E+02 -5.488643E+00 -4.104749E+00  4.367404E+01
         2   4  2.104950E+00 -4.453468E+01  1.780892E+02  1.953529E+01 -2.006482E+01  8.361429E+00
         2   5 -2.522670E+01 -2.405426E+01  7.119640E+02 -2.175849E+00  1.095311E+01  1.494566E+01
         2   6 -4.257605E+01 -3.479728E+01  6.760649E+02  7.186539E+00  3.304133E+01  1.931474E+01
         2   7 -1.725155E+01 -2.620464E+01  1.736642E+02 -3.349338E-01  2.744889E+00  7.642535E+01
         2   8 -2.128784E+01 -2.769928E+01  1.648364E+02  9.039825E+00  8.538986E+00  8.259221E+01
         3   1 -2.996426E+00  4.210548E+01 -1.818730E+02 -1.968759E+01 -2.072564E+01  7.370582E+00
         3   2 -1.595624E+00  4.364257E+01 -1.779308E+02  5.487579E+00 -4.281432E+00  4.259770E+01
         3   3 -1.527720E+02 -1.567037E+02 -8.265484E+02 -1.964975E+01 -7.525827E+01  4.455627E+01
         3   4 -1.461077E+02 -1.486280E+02 -8.093949E+02  5.707736E+00 -1.534223E+01  7.991766E+01
         3   5  2.176579E+01  2.741382E+01 -1.680707E+02 -8.773734E+00  8.765034E+00  7.959866E+01
         3   6  1.717973E+01  2.471880E+01 -1.780786E+02  4.417704E-01  2.847025E+00  7.332564E+01
         3   7  4.318462E+01  3.389314E+01 -6.700582E+02 -6.613707E+00  3.295661E+01  9.243157E+00
         3   8  2.586078E+01  2.252678E+01 -7.062953E+02  2.609704E+00  1.095088E+01  4.639590E+00
         4   1 -1.595624E+00  4.364257E+01 -1.779308E+02 -5.487579E+00  4.281432E+00  4.259770E+01
         4   2 -2.996426E+00  4.210548E+01 -1.818730E+02  1.968759E+01  2.072564E+01  7.370582E+00
         4   3 -1.461077E+02 -1.486280E+02 -8.093949E+02 -5.707736E+00  1.534223E+01  7.991766E+01
         4   4 -1.527720E+02 -1.567037E+02 -8.265484E+02  1.964975E+01  7.525827E+01  4.455627E+01
         4   5  1.717973E+01  2.471880E+01 -1.780786E+02 -4.417704E-01 -2.847025E+00  7.332564E+01
         4   6  2.176579E+01  2.741382E+01 -1.680707E+02  8.773734E+00 -8.765034E+00  7.959866E+01
         4   7  2.586078E+01  2.252678E+01 -7.062953E+02 -2.609704E+00 -1.095088E+01  4.639590E+00
         4   8  4.318462E+01  3.389314E+01 -6.700582E+02  6.613707E+00 -3.295661E+01  9.243157E+00
         5   1  1.281754E+01 -1.686063E-01  6.022363E+02  1.013949E+01  1.074256E+01  4.524270E+01
         5   2  9.521980E+00 -7.756499E+00  5.867475E+02 -6.287949E+00  4.047875E+00  3.799358E+01
         5   3  2.258359E+01  4.552966E+01  1.787538E+02  9.306525E+00  3.007260E+00  5.993415E+01
         5   4  2.276858E+01  4.542425E+01  1.760757E+02 -7.000162E+00  1.351405E+00  5.322442E+01
         5   5 -8.880325E+00 -1.314830E+01  4.731685E+02 -1.801113E+00 -7.691037E+00  2.612254E+01
         5   6 -4.571154E+00 -9.629208E+00  4.808315E+02 -4.745220E-01 -4.185709E+00  2.435865E+01
         5   7 -6.470589E+00 -1.173732E+01  1.204057E+02 -1.708254E+00 -1.376073E+00  7.783153E+01
         5   8 -5.016291E+00 -1.069036E+01  1.232751E+02 -3.827931E-01 -3.839703E-01  7.012014E+01
         6   1  9.521980E+00 -7.756499E+00  5.867475E+02  6.287949E+00 -4.047875E+00  3.799358E+01
         6   2  1.281754E+01 -1.686063E-01  6.022363E+02 -1.013949E+01 -1.074256E+01  4.524270E+01
         6   3  2.276858E+01  4.542425E+01  1.760757E+02  7.000162E+00 -1.351405E+00  5.322442E+01
         6   4  2.258359E+01  4.552966E+01  1.787538E+02 -9.306525E+00 -3.007260E+00  5.993415E+01
         6   5 -4.571154E+00 -9.629208E+00  4.808315E+02  4.745220E-01  4.185709E+00  2.435865E+01
         6   6 -8.880325E+00 -1.314830E+01  4.731685E+02  1.801113E+00  7.691037E+00  2.612254E+01
         6   7 -5.016291E+00 -1.069036E+01  1.232751E+02  3.827931E-01  3.839703E-01  7.012014E+01
         6   8 -6.470589E+00 -1.173732E+01  1.204057E+02  1.708254E+00  1.376073E+00  7.783153E+01
         7   1 -2.316618E+01 -4.609308E+01 -1.825641E+02  9.448708E+00 -3.270470E+00  5.642154E+01
         7   2 -2.340226E+01 -4.695951E+01 -1.801787E+02 -6.971538E+00 -1.389005E+00  4.973041E+01
         7   3 -1.306151E+01  1.121260E+00 -5.980504E+02  1.010100E+01 -1.101903E+01  3.231706E+01
         7   4 -8.977974E+00  8.423186E+00 -5.825422E+02 -6.197338E+00 -4.057811E+00  2.520654E+01
         7   5  6.629348E+00  1.507163E+01 -1.244356E+02 -1.572533E+00  1.431122E+00  7.375262E+01
         7   6  4.928266E+00  1.296573E+01 -1.274292E+02 -3.464286E-01  4.431563E-01  6.606647E+01
         7   7  9.102406E+00  1.388305E+01 -4.700100E+02 -1.536463E+00  7.606582E+00  1.172787E+01
         7   8  4.846924E+00  9.973318E+00 -4.778615E+02 -2.816153E-01  4.177232E+00  1.000655E+01
         8   1 -2.340226E+01 -4.695951E+01 -1.801787E+02  6.971538E+00  1.389005E+00  4.973041E+01
         8   2 -2.316618E+01 -4.609308E+01 -1.825641E+02 -9.448708E+00  3.270470E+00  5.642154E+01
         8   3 -8.977974E+00  8.423186E+00 -5.825422E+02  6.197338E+00  4.057811E+00  2.520654E+01
         8   4 -1.306151E+01  1.121260E+00 -5.980504E+02 -1.010100E+01  1.101903E+01  3.231706E+01
         8   5  4.928266E+00  1.296573E+01 -1.274292E+02  3.464286E-01 -4.431563E-01  6.606647E+01
         8   6  6.629348E+00  1.507163E+01 -1.244356E+02  1.572533E+00 -1.431122E+00  7.375262E+01
         8   7  4.846924E+00  9.973318E+00 -4.778615E+02  2.816153E-01 -4.177232E+00  1.000655E+01
         8   8  9.102406E+00  1.388305E+01 -4.700100E+02  1.536463E+00 -7.606582E+00  1.172787E+01
         9   1  7.071328E+00  1.603412E+01  3.871454E+02 -9.314305E-01  4.140945E-01  3.893910E+01
         9   2  5.483271E+00  1.374192E+01  3.838539E+02  2.083323E+00 -1.400320E+00  3.336649E+01
         9   3  1.339668E+00  4.333323E+00  1.013322E+02 -1.122105E+00  9.655173E-01  6.612588E+01
         9   4  2.300870E-01  1.966638E+00  9.989640E+01  1.938923E+00  5.080079E-01  5.749213E+01
         9   5 -2.335425E+00 -3.876085E+00  2.617120E+02 -5.754672E-01 -3.584325E+00  2.991892E+01
         9   6 -1.265075E+00 -2.586808E+00  2.632602E+02 -3.939516E-01 -2.822205E+00  2.660711E+01
         9   7 -2.350728E+00 -2.801547E+00  6.643077E+01 -2.418220E-01 -1.262773E-01  7.269109E+01
         9   8 -1.784553E+00 -2.051185E+00  6.735090E+01 -4.735882E-03  7.356049E-02  6.384994E+01
        10   1  5.483271E+00  1.374192E+01  3.838539E+02 -2.083323E+00  1.400320E+00  3.336649E+01
        10   2  7.071328E+00  1.603412E+01  3.871454E+02  9.314305E-01 -4.140945E-01  3.893910E+01
        10   3  2.300870E-01  1.966638E+00  9.989640E+01 -1.938923E+00 -5.080079E-01  5.749213E+01
        10   4  1.339668E+00  4.333323E+00  1.013322E+02  1.122105E+00 -9.655173E-01  6.612588E+01
        10   5 -1.265075E+00 -2.586808E+00  2.632602E+02  3.939516E-01  2.822205E+00  2.660711E+01
        10   6 -2.335425E+00 -3.876085E+00  2.617120E+02  5.754672E-01  3.584325E+00  2.991892E+01
        10   7 -1.784553E+00 -2.051185E+00  6.735090E+01  4.735882E-03 -7.356049E-02  6.384994E+01
        10   8 -2.350728E+00 -2.801547E+00  6.643077E+01  2.418220E-01  1.262773E-01  7.269109E+01
        11   1 -1.484066E+00 -1.038869E+00 -1.049088E+02 -1.085312E+00 -1.057752E+00  6.277687E+01
        11   2 -4.812839E-01  5.365654E-01 -1.031862E+02  1.953830E+00 -4.976719E-01  5.414768E+01
        11   3 -7.072114E+00 -1.451829E+01 -3.858334E+02 -8.543070E-01 -5.367409E-01  2.633306E+01
        11   4 -5.435528E+00 -1.263479E+01 -3.823302E+02  2.231083E+00  1.354537E+00  2.076156E+01
        11   5  2.359947E+00  8.058870E+00 -7.035179E+01 -2.050349E-01  1.077706E-01  6.978465E+01
        11   6  1.725038E+00  6.457627E+00 -7.076099E+01 -1.385306E-04 -6.720943E-02  6.098348E+01
        11   7  2.407273E+00  5.824422E+00 -2.609340E+02 -4.255507E-01  3.552388E+00  1.962433E+01
        11   8  1.365826E+00  4.202885E+00 -2.623102E+02 -2.698664E-01  2.824494E+00  1.637849E+01
        12   1 -4.812839E-01  5.365654E-01 -1.031862E+02 -1.953830E+00  4.976719E-01  5.414768E+01
        12   2 -1.484066E+00 -1.038869E+00 -1.049088E+02  1.085312E+00  1.057752E+00  6.277687E+01
        12   3 -5.435528E+00 -1.263479E+01 -3.823302E+02 -2.231083E+00 -1.354537E+00  2.076156E+01
        12   4 -7.072114E+00 -1.451829E+01 -3.858334E+02  8.543070E-01  5.367409E-01  2.633306E+01
        12   5  1.725038E+00  6.457627E+00 -7.076099E+01  1.385306E-04  6.720943E-02  6.098348E+01
        12   6  2.359947E+00  8.058870E+00 -7.035179E+01  2.050349E-01 -1.077706E-01  6.978465E+01
        12   7  1.365826E+00  4.202885E+00 -2.623102E+02  2.698664E-01 -2.824494E+00  1.637849E+01
        12   8  2.407273E+00  5.824422E+00 -2.609340E+02  4.255507E-01 -3.552388E+00  1.962433E+01
        13   1  8.867647E-01  2.903744E+00  1.715508E+02  7.964383E-01 -1.798471E+00  3.294969E+01
        13   2  4.971633E-01  1.577038E+00  1.709520E+02 -2.731281E-01 -2.100548E+00  2.819100E+01
        13   3  2.362409E+00  8.137490E+00  4.631630E+01  5.384304E-01  3.241577E-01  6.791456E+01
        13   4  2.014934E+00  6.948093E+00  4.617038E+01 -5.186904E-01  2.476528E-01  5.942529E+01
        13   5 -8.393531E-01 -1.184259E+00  4.869079E+01 -3.942635E-01 -2.758599E+00  2.783281E+01
        13   6 -4.578749E-01 -3.264581E-01  4.927281E+01 -8.935340E-02 -2.404611E+00  2.370817E+01
        13   7 -9.881500E-01  6.700008E-01  1.041724E+01 -4.908477E-02  6.358613E-02  6.988310E+01
        13   8 -6.935619E-01  1.049882E+00  1.106301E+01  5.691926E-02  1.532851E-01  6.128482E+01
        14   1  4.971633E-01  1.577038E+00  1.709520E+02  2.731281E-01  2.100548E+00  2.819100E+01
        14   2  8.867647E-01  2.903744E+00  1.715508E+02 -7.964383E-01  1.798471E+00  3.294969E+01
        14   3  2.014934E+00  6.948093E+00  4.617038E+01  5.186904E-01 -2.476528E-01  5.942529E+01
        14   4  2.362409E+00  8.137490E+00  4.631630E+01 -5.384304E-01 -3.241577E-01  6.791456E+01
        14   5 -4.578749E-01 -3.264581E-01  4.927281E+01  8.935340E-02  2.404611E+00  2.370817E+01
        14   6 -8.393531E-01 -1.184259E+00  4.869079E+01  3.942635E-01  2.758599E+00  2.783281E+01
        14   7 -6.935619E-01  1.049882E+00  1.106301E+01 -5.691926E-02 -1.532851E-01  6.128482E+01
        14   8 -9.881500E-01  6.700008E-01  1.041724E+01  4.908477E-02 -6.358613E-02  6.988310E+01
        15   1 -2.402263E+00 -2.982513E+00 -4.990064E+01  5.522689E-01 -3.527614E-01  6.611706E+01
        15   2 -2.084670E+00 -2.546661E+00 -4.917366E+01 -5.200908E-01 -2.400613E-01  5.760828E+01
        15   3 -9.097110E-01 -6.259569E-01 -1.716814E+02  8.949346E-01  1.712860E+00  2.619039E+01
        15   4 -4.645539E-01  3.189823E-01 -1.707198E+02 -1.643048E-01  2.087947E+00  2.141617E+01
        15   5  1.010983E+00  5.241528E+00 -1.419779E+01 -4.457911E-02 -5.924670E-02  6.923928E+01
        15   6  6.951863E-01  4.104655E+00 -1.416484E+01  5.227038E-02 -1.523526E-01  6.066861E+01
        15   7  8.660663E-01  3.486330E+00 -4.894803E+01 -2.751939E-01  2.771173E+00  2.561495E+01
        15   8  4.879098E-01  2.273362E+00 -4.918188E+01  1.490542E-02  2.414838E+00  2.153779E+01
        16   1 -2.084670E+00 -2.546661E+00 -4.917366E+01  5.200908E-01  2.400613E-01  5.760828E+01
        16   2 -2.402263E+00 -2.982513E+00 -4.990064E+01 -5.522689E-01  3.527614E-01  6.611706E+01
        16   3 -4.645539E-01  3.189823E-01 -1.707198E+02  1.643048E-01 -2.087947E+00  2.141617E+01
        16   4 -9.097110E-01 -6.259569E-01 -1.716814E+02 -8.949346E-01 -1.712860E+00  2.619039E+01
        16   5  6.951863E-01  4.104655E+00 -1.416484E+01 -5.227038E-02  1.523526E-01  6.066861E+01
        16   6  1.010983E+00  5.241528E+00 -1.419779E+01  4.457911E-02  5.924670E-02  6.923928E+01
        16   7  4.879098E-01  2.273362E+00 -4.918188E+01 -1.490542E-02 -2.414838E+00  2.153779E+01
        16   8  8.660663E-01  3.486330E+00 -4.894803E+01  2.751939E-01 -2.771173E+00  2.561495E+01
        17   1  7.943150E-01  3.472874E+00 -4.117643E+01  6.089643E-02 -2.218792E+00  2.687650E+01
        17   2  4.293414E-01  2.433263E+00 -4.128729E+01  2.771253E-01 -2.349821E+00  2.292645E+01
        17   3  6.225045E-01  4.514533E+00 -1.250299E+01 -1.361497E-01  1.796109E-01  6.819136E+01
        17   4  2.408112E-01  3.195018E+00 -1.244291E+01  8.300534E-02  1.796415E-01  5.949618E+01
        17   5 -8.614013E-01  1.390890E-01 -1.638731E+02 -2.828757E-02 -2.047847E+00  2.428921E+01
        17   6 -4.245637E-01  2.451459E-01 -1.635286E+02 -8.848295E-01 -2.607482E+00  1.981829E+01
        17   7 -1.015694E+00  2.621911E-01 -4.675579E+01  1.832952E-01  2.862210E-01  6.800215E+01
        17   8 -3.640796E-01  1.182137E+00 -4.579657E+01  6.840930E-02  1.570283E-01  5.947218E+01
        18   1  4.293414E-01  2.433263E+00 -4.128729E+01 -2.771253E-01  2.349821E+00  2.292645E+01
        18   2  7.943150E-01  3.472874E+00 -4.117643E+01 -6.089643E-02  2.218792E+00  2.687650E+01
        18   3  2.408112E-01  3.195018E+00 -1.244291E+01 -8.300534E-02 -1.796415E-01  5.949618E+01
        18   4  6.225045E-01  4.514533E+00 -1.250299E+01  1.361497E-01 -1.796109E-01  6.819136E+01
        18   5 -4.245637E-01  2.451459E-01 -1.635286E+02  8.848295E-01  2.607482E+00  1.981829E+01
        18   6 -8.614013E-01  1.390890E-01 -1.638731E+02  2.828757E-02  2.047847E+00  2.428921E+01
        18   7 -3.640796E-01  1.182137E+00 -4.579657E+01 -6.840930E-02 -1.570283E-01  5.947218E+01
        18   8 -1.015694E+00  2.621911E-01 -4.675579E+01 -1.832952E-01 -2.862210E-01  6.800215E+01
        19   1 -6.236930E-01  1.304227E+00  8.804578E+00 -1.365500E-01 -1.816845E-01  6.874774E+01
        19   2 -2.546890E-01  1.869854E+00  9.449383E+00  7.774319E-02 -1.745998E-01  6.002077E+01
        19   3 -7.837160E-01 -1.079959E+00  4.081632E+01  1.611779E-01  2.203094E+00  2.875450E+01
        19   4 -4.214849E-01 -3.843655E-01  4.127322E+01  3.783950E-01  2.340482E+00  2.475544E+01
        19   5  9.719852E-01  5.126032E+00  4.301116E+01  2.004408E-01 -2.623844E-01  6.976396E+01
        19   6  3.031621E-01  3.466159E+00  4.266358E+01  7.017967E-02 -1.777183E-01  6.124694E+01
        19   7  8.616630E-01  2.030410E+00  1.638749E+02  8.997918E-02  2.137202E+00  3.083382E+01
        19   8  4.377391E-01  1.537831E+00  1.638705E+02 -7.627601E-01  2.616966E+00  2.637991E+01
        20   1 -2.546890E-01  1.869854E+00  9.449383E+00 -7.774319E-02  1.745998E-01  6.002077E+01
        20   2 -6.236930E-01  1.304227E+00  8.804578E+00  1.365500E-01  1.816845E-01  6.874774E+01
        20   3 -4.214849E-01 -3.843655E-01  4.127322E+01 -3.783950E-01 -2.340482E+00  2.475544E+01
        20   4 -7.837160E-01 -1.079959E+00  4.081632E+01 -1.611779E-01 -2.203094E+00  2.875450E+01
        20   5  3.031621E-01  3.466159E+00  4.266358E+01 -7.017967E-02  1.777183E-01  6.124694E+01
        20   6  9.719852E-01  5.126032E+00  4.301116E+01 -2.004408E-01  2.623844E-01  6.976396E+01
        20   7  4.377391E-01  1.537831E+00  1.638705E+02  7.627601E-01 -2.616966E+00  2.637991E+01
        20   8  8.616630E-01  2.030410E+00  1.638749E+02 -8.997918E-02 -2.137202E+00  3.083382E+01
        21   1  1.062701E+00  2.410828E+00 -2.537350E+02  3.379974E-01 -2.807431E+00  2.219871E+01