
 displacements (vx,vy,vz) for set NALL and time  0.1000000E+01

         1  0.000000E+00  0.000000E+00  0.000000E+00
         2  0.000000E+00  0.000000E+00  0.000000E+00
         3  0.000000E+00  0.000000E+00  0.000000E+00
         4  0.000000E+00  0.000000E+00  0.000000E+00
         5 -4.087404E-05  8.768820E-02  8.180549E-03
         6  4.087404E-05  8.768820E-02  8.180549E-03
         7 -4.087404E-05  8.768820E-02 -8.180549E-03
         8  4.087404E-05  8.768820E-02 -8.180549E-03
         9  0.000000E+00  0.000000E+00  0.000000E+00
        10  0.000000E+00  0.000000E+00  0.000000E+00
        11  0.000000E+00  0.000000E+00  0.000000E+00
        12  0.000000E+00  0.000000E+00  0.000000E+00
        13  0.000000E+00  0.000000E+00  0.000000E+00
        14  0.000000E+00  0.000000E+00  0.000000E+00
        15  0.000000E+00  0.000000E+00  0.000000E+00
        16  0.000000E+00  0.000000E+00  0.000000E+00
        17  0.000000E+00  0.000000E+00  0.000000E+00
        18  0.000000E+00  0.000000E+00  0.000000E+00
        19  0.000000E+00  0.000000E+00  0.000000E+00
        20  0.000000E+00  0.000000E+00  0.000000E+00
        21 -1.867493E-05  8.760204E-02  8.172754E-03
        22  4.612915E-14  8.759457E-02  8.155627E-03
        23  1.867493E-05  8.760204E-02  8.172754E-03
        24  1.058203E-07  8.762113E-02  4.063520E-03
        25  3.931729E-14  8.757620E-02 -2.529661E-15
        26 -1.058203E-07  8.762113E-02 -4.063520E-03
        27 -1.867493E-05  8.760204E-02 -8.172754E-03
        28  3.249841E-14  8.759457E-02 -8.155627E-03
        29  1.867493E-05  8.760204E-02 -8.172754E-03
        30  1.058203E-07  8.762113E-02 -4.063520E-03
        31  3.938987E-14  8.757620E-02  3.372770E-15
        32 -1.058202E-07  8.762113E-02  4.063520E-03
        33 -3.087054E-04  5.379759E-04  9.258947E-04
        34 -2.250388E-04  1.919815E-03  1.854545E-03
        35 -2.541806E-04  4.320069E-03  2.726438E-03
        36 -2.243458E-04  7.483137E-03  3.532478E-03
        37 -2.132615E-04  1.146897E-02  4.267077E-03
        38 -1.909249E-04  1.612759E-02  4.943101E-03
        39 -1.738930E-04  2.144801E-02  5.553199E-03
        40 -1.537638E-04  2.733636E-02  6.100749E-03
        41 -1.352299E-04  3.374360E-02  6.581783E-03
        42 -1.164373E-04  4.059991E-02  7.000115E-03
        43 -9.534612E-05  4.784052E-02  7.353449E-03
        44 -7.642178E-05  5.541246E-02  7.644605E-03
        45 -5.959481E-05  6.321621E-02  7.866425E-03
        46 -4.886196E-05  7.124065E-02  8.027329E-03
        47 -3.801963E-06  7.938210E-02  8.126471E-03
        48  3.801963E-06  7.938210E-02  8.126471E-03
        49  4.886196E-05  7.124065E-02  8.027329E-03
        50  5.959481E-05  6.321621E-02  7.866425E-03
        51  7.642178E-05  5.541246E-02  7.644605E-03
        52  9.534613E-05  4.784052E-02  7.353449E-03
        53  1.164373E-04  4.059991E-02  7.000115E-03
        54  1.352299E-04  3.374360E-02  6.581783E-03
        55  1.537638E-04  2.733636E-02  6.100749E-03
        56  1.738930E-04  2.144801E-02  5.553199E-03
        57  1.909249E-04  1.612759E-02  4.943101E-03
        58  2.132615E-04  1.146897E-02  4.267077E-03
        59  2.243458E-04  7.483137E-03  3.532478E-03
        60  2.541806E-04  4.320069E-03  2.726438E-03
        61  2.250388E-04  1.919815E-03  1.854545E-03
        62  3.087054E-04  5.379759E-04  9.258947E-04
        63  3.087054E-04  5.379759E-04 -9.258947E-04
        64  2.250388E-04  1.919815E-03 -1.854545E-03
        65  2.541806E-04  4.320069E-03 -2.726438E-03
        66  2.243458E-04  7.483137E-03 -3.532478E-03
        67  2.132615E-04  1.146897E-02 -4.267077E-03
        68  1.909249E-04  1.612759E-02 -4.943101E-03
        69  1.738930E-04  2.144801E-02 -5.553199E-03
        70  1.537638E-04  2.733636E-02 -6.100749E-03
        71  1.352299E-04  3.374360E-02 -6.581783E-03
        72  1.164373E-04  4.059991E-02 -7.000115E-03
        73  9.534613E-05  4.784052E-02 -7.353449E-03
        74  7.642178E-05  5.541246E-02 -7.644605E-03
        75  5.959481E-05  6.321621E-02 -7.866425E-03
        76  4.886196E-05  7.124065E-02 -8.027329E-03
        77  3.801963E-06  7.938210E-02 -8.126471E-03
        78 -3.087054E-04  5.379759E-04 -9.258947E-04
        79 -2.250388E-04  1.919815E-03 -1.854545E-03
        80 -2.541806E-04  4.320069E-03 -2.726438E-03
        81 -2.243458E-04  7.483137E-03 -3.532478E-03
        82 -2.132615E-04  1.146897E-02 -4.267077E-03
        83 -1.909249E-04  1.612759E-02 -4.943101E-03
        84 -1.738930E-04  2.144801E-02 -5.553199E-03
        85 -1.537638E-04  2.733636E-02 -6.100749E-03
        86 -1.352299E-04  3.374360E-02 -6.581783E-03
        87 -1.164373E-04  4.059991E-02 -7.000115E-03
        88 -9.534612E-05  4.784052E-02 -7.353449E-03
        89 -7.642178E-05  5.541246E-02 -7.644605E-03
        90 -5.959481E-05  6.321621E-02 -7.866425E-03
        91 -4.886196E-05  7.124065E-02 -8.027329E-03
        92 -3.801963E-06  7.938210E-02 -8.126471E-03
        93  0.000000E+00  0.000000E+00  0.000000E+00
        94  0.000000E+00  0.000000E+00  0.000000E+00
        95  0.000000E+00  0.000000E+00  0.000000E+00
        96  0.000000E+00  0.000000E+00  0.000000E+00
        97  0.000000E+00  0.000000E+00  0.000000E+00
        98  4.274113E-14  8.757388E-02  4.068287E-03
        99  3.934820E-14  8.757124E-02  1.853898E-15
       100  3.933507E-14  8.755606E-02  3.500074E-16
       101  3.930949E-14  8.757124E-02 -1.109760E-15
       102  3.588977E-14  8.757388E-02 -4.068287E-03
       103  7.846155E-16  6.703382E-04  8.992385E-04
       104  1.114081E-04  2.028598E-03  1.866487E-03
       105  2.347352E-15  2.053114E-03  1.879985E-03
       106 -1.114081E-04  2.028598E-03  1.866487E-03
       107  4.403704E-15  4.440861E-03  2.727150E-03
       108  1.121880E-04  7.570164E-03  3.539054E-03
       109  6.981645E-15  7.604186E-03  3.540096E-03
       110 -1.121880E-04  7.570164E-03  3.539054E-03
       111  9.881802E-15  1.157298E-02  4.270601E-03
       112  9.540268E-05  1.620178E-02  4.947748E-03
       113  1.318128E-14  1.622644E-02  4.947886E-03
       114 -9.540268E-05  1.620178E-02  4.947748E-03
       115  1.661617E-14  2.153417E-02  5.557321E-03
       116  7.689958E-05  2.739399E-02  6.105190E-03
       117  2.030304E-14  2.741373E-02  6.104808E-03
       118 -7.689958E-05  2.739399E-02  6.105190E-03
       119  2.373958E-14  3.381154E-02  6.585965E-03
       120  5.817195E-05  4.064338E-02  7.004645E-03
       121  2.731450E-14  4.065646E-02  7.004198E-03
       122 -5.817195E-05  4.064338E-02  7.004645E-03
       123  3.074147E-14  4.788943E-02  7.357591E-03
       124  3.838839E-05  5.543505E-02  7.648472E-03
       125  3.407691E-14  5.544373E-02  7.647922E-03
       126 -3.838839E-05  5.543505E-02  7.648472E-03
       127  3.727227E-14  6.325141E-02  7.870853E-03
       128  2.368098E-05  7.126021E-02  8.032833E-03
       129  4.039197E-14  7.125000E-02  8.032921E-03
       130 -2.368098E-05  7.126021E-02  8.032833E-03
       131  4.323983E-14  7.939197E-02  8.128469E-03
       132  4.624327E-16  3.481141E-04 -5.663441E-16
       133 -1.135544E-04  1.843352E-03  9.190454E-04
       134  1.385995E-15  1.854952E-03 -1.145032E-15
       135  1.135544E-04  1.843352E-03 -9.190454E-04
       136  2.898195E-15  4.172219E-03 -1.593222E-15
       137 -1.119197E-04  7.414999E-03  1.754859E-03
       138  4.832400E-15  7.399238E-03 -1.992764E-15
       139  1.119197E-04  7.414999E-03 -1.754859E-03
       140  7.160939E-15  1.135423E-02 -2.320301E-15
       141 -9.552094E-05  1.606039E-02  2.461630E-03
       142  9.790779E-15  1.604282E-02 -2.554123E-15
       143  9.552094E-05  1.606039E-02 -2.461630E-03
       144  1.264716E-14  2.135820E-02 -2.699880E-15
       145 -7.693710E-05  2.728022E-02  3.039875E-03
       146  1.563748E-14  2.726234E-02 -2.781732E-15
       147  7.693710E-05  2.728022E-02 -3.039875E-03
       148  1.862199E-14  3.367611E-02 -2.743956E-15
       149 -5.791486E-05  4.055585E-02  3.489997E-03
       150  2.165542E-14  4.054051E-02 -2.725088E-15
       151  5.791486E-05  4.055585E-02 -3.489997E-03
       152  2.459057E-14  4.779386E-02 -2.702247E-15
       153 -3.949403E-05  5.537671E-02  3.811093E-03
       154  2.764629E-14  5.536154E-02 -2.645453E-15
       155  3.949403E-05  5.537671E-02 -3.811093E-03
       156  3.052333E-14  6.319733E-02 -2.603630E-15
       157 -1.949605E-05  7.122136E-02  4.006787E-03
       158  3.344783E-14  7.120644E-02 -2.538117E-15
       159  1.949605E-05  7.122136E-02 -4.006787E-03
       160  3.640542E-14  7.937859E-02 -2.564341E-15
       161 -2.508641E-16  6.703382E-04 -8.992385E-04
       162  1.114081E-04  2.028598E-03 -1.866487E-03
       163  2.072588E-16  2.053114E-03 -1.879985E-03
       164 -1.114081E-04  2.028598E-03 -1.866487E-03
       165  1.113150E-15  4.440861E-03 -2.727150E-03
       166  1.121880E-04  7.570164E-03 -3.539054E-03
       167  2.514427E-15  7.604186E-03 -3.540096E-03
       168 -1.121880E-04  7.570164E-03 -3.539054E-03
       169  4.258850E-15  1.157298E-02 -4.270601E-03
       170  9.540268E-05  1.620178E-02 -4.947748E-03
       171  6.321278E-15  1.622644E-02 -4.947886E-03
       172 -9.540268E-05  1.620178E-02 -4.947748E-03
       173  8.617456E-15  2.153417E-02 -5.557321E-03
       174  7.689958E-05  2.739399E-02 -6.105190E-03
       175  1.107859E-14  2.741373E-02 -6.104808E-03
       176 -7.689958E-05  2.739399E-02 -6.105190E-03
       177  1.354671E-14  3.381154E-02 -6.585965E-03
       178  5.817195E-05  4.064338E-02 -7.004645E-03
       179  1.606462E-14  4.065646E-02 -7.004198E-03
       180 -5.817195E-05  4.064338E-02 -7.004645E-03
       181  1.853715E-14  4.788943E-02 -7.357591E-03
       182  3.838839E-05  5.543505E-02 -7.648472E-03
       183  2.113587E-14  5.544373E-02 -7.647922E-03
       184 -3.838839E-05  5.543505E-02 -7.648472E-03
       185  2.380041E-14  6.325141E-02 -7.870853E-03
       186  2.368098E-05  7.126021E-02 -8.032833E-03
       187  2.656011E-14  7.125000E-02 -8.032921E-03
       188 -2.368098E-05  7.126021E-02 -8.032833E-03
       189  2.949574E-14  7.939197E-02 -8.128469E-03
       190  4.791865E-16  3.481141E-04  6.127238E-16
       191 -1.135544E-04  1.843352E-03 -9.190454E-04
       192  1.399258E-15  1.854952E-03  1.247629E-15
       193  1.135544E-04  1.843352E-03  9.190454E-04
       194  2.911835E-15  4.172219E-03  1.748913E-15
       195 -1.119197E-04  7.414999E-03 -1.754859E-03
       196  4.851662E-15  7.399238E-03  2.190576E-15
       197  1.119197E-04  7.414999E-03  1.754859E-03
       198  7.173875E-15  1.135423E-02  2.559217E-15
       199 -9.552094E-05  1.606039E-02 -2.461630E-03
       200  9.822438E-15  1.604282E-02  2.850859E-15
       201  9.552094E-05  1.606039E-02  2.461630E-03
       202  1.266717E-14  2.135820E-02  3.048072E-15
       203 -7.693710E-05  2.728022E-02 -3.039875E-03
       204  1.569209E-14  2.726234E-02  3.162730E-15
       205  7.693710E-05  2.728022E-02  3.039875E-03
       206  1.865877E-14  3.367611E-02  3.204521E-15
       207 -5.791486E-05  4.055585E-02 -3.489997E-03
       208  2.164258E-14  4.054051E-02  3.198625E-15
       209  5.791486E-05  4.055585E-02  3.489997E-03
       210  2.460163E-14  4.779386E-02  3.251116E-15
       211 -3.949403E-05  5.537671E-02 -3.811093E-03
       212  2.759055E-14  5.536154E-02  3.226586E-15
       213  3.949403E-05  5.537671E-02  3.811093E-03
       214  3.052940E-14  6.319733E-02  3.236665E-15
       215 -1.949605E-05  7.122136E-02 -4.006787E-03
       216  3.347344E-14  7.120644E-02  3.291584E-15
       217  1.949605E-05  7.122136E-02  4.006787E-03
       218  3.633698E-14  7.937859E-02  3.290777E-15
       219  3.494793E-16  4.797310E-04  2.280717E-17
       220  1.874148E-15  1.970156E-03  9.298896E-04
       221  1.344798E-15  1.959608E-03  6.358849E-16
       222  1.347623E-15  1.977931E-03  5.087472E-17
       223  1.339071E-15  1.959608E-03 -5.338408E-16
       224  8.055110E-16  1.970156E-03 -9.298896E-04
       225  2.829930E-15  4.297417E-03  7.903834E-17
       226  5.899690E-15  7.531973E-03  1.761260E-03
       227  4.813153E-15  7.481641E-03  1.138427E-15
       228  4.794618E-15  7.511529E-03  1.006145E-16
       229  4.802690E-15  7.481641E-03 -9.354496E-16
       230  3.657331E-15  7.531973E-03 -1.761260E-03
       231  7.123457E-15  1.146127E-02  1.277868E-16
       232  1.148094E-14  1.615714E-02  2.465966E-03
       233  9.775167E-15  1.611505E-02  1.490344E-15
       234  9.750122E-15  1.613770E-02  1.565588E-16
       235  9.756336E-15  1.611505E-02 -1.191276E-15
       236  8.056598E-15  1.615714E-02 -2.465966E-03
       237  1.264903E-14  2.144536E-02  1.761350E-16
       238  1.794331E-14  2.735744E-02  3.044022E-03
       239  1.565675E-14  2.731993E-02  1.679988E-15
       240  1.560947E-14  2.733928E-02  2.115821E-16
       241  1.561605E-14  2.731993E-02 -1.272420E-15
       242  1.333583E-14  2.735744E-02 -3.044022E-03
       243  1.867470E-14  3.374344E-02  2.259477E-16
       244  2.446322E-14  4.061354E-02  3.494026E-03
       245  2.162359E-14  4.058452E-02  1.731584E-15
       246  2.159888E-14  4.059967E-02  2.651959E-16
       247  2.162766E-14  4.058452E-02 -1.232264E-15
       248  1.883704E-14  4.061354E-02 -3.494026E-03
       249  2.459795E-14  4.784079E-02  2.669261E-16
       250  3.082647E-14  5.541358E-02  3.815405E-03
       251  2.755587E-14  5.539212E-02  1.774188E-15
       252  2.757343E-14  5.540276E-02  3.105366E-16
       253  2.762287E-14  5.539212E-02 -1.168826E-15
       254  2.434798E-14  5.541358E-02 -3.815405E-03
       255  3.054853E-14  6.322500E-02  3.180733E-16
       256  3.690277E-14  7.123574E-02  4.009105E-03
       257  3.343870E-14  7.122205E-02  1.817123E-15
       258  3.341390E-14  7.123069E-02  3.607344E-16
       259  3.344460E-14  7.122205E-02 -1.088105E-15
       260  2.998903E-14  7.123574E-02 -4.009105E-03
       261  3.639168E-14  7.937948E-02  3.855423E-16

 stresses (elem, integ.pnt.,sxx,syy,szz,sxy,sxz,syz) for set FIX and time  0.1000000E+01

         1   1  6.106266E+01  6.146674E+01  3.397994E+02 -7.670276E+00  3.131400E+01  1.069647E+01
         1   2  5.786123E+01  5.800960E+01  3.313874E+02  2.238243E+00  6.439205E+00  2.580801E+01
         1   3  1.441984E+00 -1.754788E+01  7.548390E+01 -7.680881E+00  8.391490E+00 -7.891695E+00
         1   4  7.137578E-01 -1.808647E+01  7.327415E+01  2.227840E+00  1.702755E+00  7.387218E+00
         1   5 -1.707693E+01 -1.452694E+01  3.009789E+02 -2.710488E+00 -1.258740E+01 -1.512051E-02
         1   6 -1.000642E+01 -9.910653E+00  3.154613E+02  9.427867E-01 -3.872227E+00 -8.610760E-01
         1   7 -8.303026E+00 -1.148060E+01  7.636864E+01 -3.500012E+00 -3.457221E+00  1.881866E+01
         1   8 -6.573415E+00 -1.054313E+01  7.999888E+01  1.540168E-01 -1.145551E+00  1.805753E+01
         2   1  5.786123E+01  5.800960E+01  3.313874E+02 -2.238243E+00 -6.439205E+00  2.580801E+01
         2   2  6.106266E+01  6.146674E+01  3.397994E+02  7.670276E+00 -3.131400E+01  1.069647E+01
         2   3  7.137578E-01 -1.808647E+01  7.327415E+01 -2.227840E+00 -1.702755E+00  7.387218E+00
         2   4  1.441984E+00 -1.754788E+01  7.548390E+01  7.680881E+00 -8.391490E+00 -7.891695E+00
         2   5 -1.000642E+01 -9.910653E+00  3.154613E+02 -9.427867E-01  3.872227E+00 -8.610760E-01
         2   6 -1.707693E+01 -1.452694E+01  3.009789E+02  2.710488E+00  1.258740E+01 -1.512051E-02
         2   7 -6.573415E+00 -1.054313E+01  7.999888E+01 -1.540168E-01  1.145551E+00  1.805753E+01
         2   8 -8.303026E+00 -1.148060E+01  7.636864E+01  3.500012E+00  3.457221E+00  1.881866E+01
         3   1 -1.441984E+00  1.754788E+01 -7.548390E+01 -7.680881E+00 -8.391490E+00 -7.891695E+00
         3   2 -7.137578E-01  1.808647E+01 -7.327415E+01  2.227840E+00 -1.702755E+00  7.387218E+00
         3   3 -6.106266E+01 -6.146674E+01 -3.397994E+02 -7.670276E+00 -3.131400E+01  1.069647E+01
         3   4 -5.786123E+01 -5.800960E+01 -3.313874E+02  2.238243E+00 -6.439205E+00  2.580801E+01
         3   5  8.303026E+00  1.148060E+01 -7.636864E+01 -3.500012E+00  3.457221E+00  1.881866E+01
         3   6  6.573415E+00  1.054313E+01 -7.999888E+01  1.540168E-01  1.145551E+00  1.805753E+01
         3   7  1.707693E+01  1.452694E+01 -3.009789E+02 -2.710488E+00  1.258740E+01 -1.512051E-02
         3   8  1.000642E+01  9.910653E+00 -3.154613E+02  9.427867E-01  3.872227E+00 -8.610760E-01
         4   1 -7.137578E-01  1.808647E+01 -7.327415E+01 -2.227840E+00  1.702755E+00  7.387218E+00
         4   2 -1.441984E+00  1.754788E+01 -7.548390E+01  7.680881E+00  8.391490E+00 -7.891695E+00
         4   3 -5.786123E+01 -5.800960E+01 -3.313874E+02 -2.238243E+00  6.439205E+00  2.580801E+01
         4   4 -6.106266E+01 -6.146674E+01 -3.397994E+02  7.670276E+00  3.131400E+01  1.069647E+01
         4   5  6.573415E+00  1.054313E+01 -7.999888E+01 -1.540168E-01 -1.145551E+00  1.805753E+01
         4   6  8.303026E+00  1.148060E+01 -7.636864E+01  3.500012E+00 -3.457221E+00  1.881866E+01
         4   7  1.000642E+01  9.910653E+00 -3.154613E+02 -9.427867E-01 -3.872227E+00 -8.610760E-01
         4   8  1.707693E+01  1.452694E+01 -3.009789E+02  2.710488E+00 -1.258740E+01 -1.512051E-02
         5   1  5.192555E+00  2.558566E-02  2.902416E+02  4.005751E+00  4.688713E+00  1.059130E+01
         5   2  3.784752E+00 -2.965041E+00  2.840861E+02 -2.442946E+00  2.266418E+00  8.477940E+00
         5   3  8.921614E+00  1.815252E+01  8.524642E+01  3.656555E+00  1.142863E+00  8.866881E+00
         5   4  9.030799E+00  1.828277E+01  8.428682E+01 -2.792196E+00  5.231277E-01  8.063880E+00
         5   5 -3.595081E+00 -5.219654E+00  2.634006E+02 -6.669466E-01 -2.584881E+00  2.104559E+00
         5   6 -1.879872E+00 -3.745828E+00  2.665072E+02 -1.428076E-01 -1.202257E+00  2.246325E+00
         5   7 -2.681995E+00 -5.224761E+00  6.868815E+01 -6.531172E-01 -6.027382E-01  1.652112E+01
         5   8 -2.031277E+00 -4.587236E+00  6.991505E+01 -1.317937E-01 -2.029484E-01  1.512799E+01
         6   1  3.784752E+00 -2.965041E+00  2.840861E+02  2.442946E+00 -2.266418E+00  8.477940E+00
         6   2  5.192555E+00  2.558566E-02  2.902416E+02 -4.005751E+00 -4.688713E+00  1.059130E+01
         6   3  9.030799E+00  1.828277E+01  8.428682E+01  2.792196E+00 -5.231277E-01  8.063880E+00
         6   4  8.921614E+00  1.815252E+01  8.524642E+01 -3.656555E+00 -1.142863E+00  8.866881E+00
         6   5 -1.879872E+00 -3.745828E+00  2.665072E+02  1.428076E-01  1.202257E+00  2.246325E+00
         6   6 -3.595081E+00 -5.219654E+00  2.634006E+02  6.669466E-01  2.584881E+00  2.104559E+00
         6   7 -2.031277E+00 -4.587236E+00  6.991505E+01  1.317937E-01  2.029484E-01  1.512799E+01
         6   8 -2.681995E+00 -5.224761E+00  6.868815E+01  6.531172E-01  6.027382E-01  1.652112E+01
         7   1 -8.921614E+00 -1.815252E+01 -8.524642E+01  3.656555E+00 -1.142863E+00  8.866881E+00
         7   2 -9.030799E+00 -1.828277E+01 -8.428682E+01 -2.792196E+00 -5.231277E-01  8.063880E+00
         7   3 -5.192555E+00 -2.558566E-02 -2.902416E+02  4.005751E+00 -4.688713E+00  1.059130E+01
         7   4 -3.784752E+00  2.965041E+00 -2.840861E+02 -2.442946E+00 -2.266418E+00  8.477940E+00
         7   5  2.681995E+00  5.224761E+00 -6.868815E+01 -6.531172E-01  6.027382E-01  1.652112E+01
         7   6  2.031277E+00  4.587236E+00 -6.991505E+01 -1.317937E-01  2.029484E-01  1.512799E+01
         7   7  3.595081E+00  5.219654E+00 -2.634006E+02 -6.669466E-01  2.584881E+00  2.104559E+00
         7   8  1.879872E+00  3.745828E+00 -2.665072E+02 -1.428076E-01  1.202257E+00  2.246325E+00
         8   1 -9.030799E+00 -1.828277E+01 -8.428682E+01  2.792196E+00  5.231277E-01  8.063880E+00
         8   2 -8.921614E+00 -1.815252E+01 -8.524642E+01 -3.656555E+00  1.142863E+00  8.866881E+00
         8   3 -3.784752E+00  2.965041E+00 -2.840861E+02  2.442946E+00  2.266418E+00  8.477940E+00
         8   4 -5.192555E+00 -2.558566E-02 -2.902416E+02 -4.005751E+00  4.688713E+00  1.059130E+01
         8   5  2.031277E+00  4.587236E+00 -6.991505E+01  1.317937E-01 -2.029484E-01  1.512799E+01
         8   6  2.681995E+00  5.224761E+00 -6.868815E+01  6.531172E-01 -6.027382E-01  1.652112E+01
         8   7  1.879872E+00  3.745828E+00 -2.665072E+02  1.428076E-01 -1.202257E+00  2.246325E+00
         8   8  3.595081E+00  5.219654E+00 -2.634006E+02  6.669466E-01 -2.584881E+00  2.104559E+00
         9   1  2.793006E+00  5.928932E+00  2.472616E+02 -3.505696E-01  6.972185E-01  7.365021E+00
         9   2  2.128967E+00  5.080248E+00  2.458932E+02  8.342970E-01 -1.256670E-01  5.979167E+00
         9   3  6.335773E-01  1.118065E+00  6.621346E+01 -4.194321E-01  3.900586E-01  1.219339E+01
         9   4  1.920613E-01  3.051521E-01  6.555367E+01  7.654490E-01  1.624741E-01  1.046242E+01
         9   5 -9.305718E-01 -2.032667E+00  2.217844E+02 -1.984034E-01 -9.440830E-01  4.379305E+00
         9   6 -5.139823E-01 -1.439305E+00  2.223555E+02 -1.278024E-01 -6.370507E-01  3.916632E+00
         9   7 -9.064967E-01 -2.186136E+00  5.887289E+01 -8.228630E-02 -7.925560E-02  1.475903E+01
         9   8 -6.784812E-01 -1.726038E+00  5.911277E+01 -1.177420E-03 -4.079530E-03  1.294503E+01
        10   1  2.128967E+00  5.080248E+00  2.458932E+02 -8.342970E-01  1.256670E-01  5.979167E+00
        10   2  2.793006E+00  5.928932E+00  2.472616E+02  3.505696E-01 -6.972185E-01  7.365021E+00
        10   3  1.920613E-01  3.051521E-01  6.555367E+01 -7.654490E-01 -1.624741E-01  1.046242E+01
        10   4  6.335773E-01  1.118065E+00  6.621346E+01  4.194321E-01 -3.900586E-01  1.219339E+01
        10   5 -5.139823E-01 -1.439305E+00  2.223555E+02  1.278024E-01  6.370507E-01  3.916632E+00
        10   6 -9.305718E-01 -2.032667E+00  2.217844E+02  1.984034E-01  9.440830E-01  4.379305E+00
        10   7 -6.784812E-01 -1.726038E+00  5.911277E+01  1.177420E-03  4.079530E-03  1.294503E+01
        10   8 -9.064967E-01 -2.186136E+00  5.887289E+01  8.228630E-02  7.925560E-02  1.475903E+01
        11   1 -6.335773E-01 -1.118065E+00 -6.621346E+01 -4.194321E-01 -3.900586E-01  1.219339E+01
        11   2 -1.920613E-01 -3.051521E-01 -6.555367E+01  7.654490E-01 -1.624741E-01  1.046242E+01
        11   3 -2.793006E+00 -5.928932E+00 -2.472616E+02 -3.505696E-01 -6.972185E-01  7.365021E+00
        11   4 -2.128967E+00 -5.080248E+00 -2.458932E+02  8.342970E-01  1.256670E-01  5.979167E+00
        11   5  9.064967E-01  2.186136E+00 -5.887289E+01 -8.228630E-02  7.925560E-02  1.475903E+01
        11   6  6.784812E-01  1.726038E+00 -5.911277E+01 -1.177420E-03  4.079530E-03  1.294503E+01
        11   7  9.305718E-01  2.032667E+00 -2.217844E+02 -1.984034E-01  9.440830E-01  4.379305E+00
        11   8  5.139823E-01  1.439305E+00 -2.223555E+02 -1.278024E-01  6.370507E-01  3.916632E+00
        12   1 -1.920613E-01 -3.051521E-01 -6.555367E+01 -7.654490E-01  1.624741E-01  1.046242E+01
        12   2 -6.335773E-01 -1.118065E+00 -6.621346E+01  4.194321E-01  3.900586E-01  1.219339E+01
        12   3 -2.128967E+00 -5.080248E+00 -2.458932E+02 -8.342970E-01 -1.256670E-01  5.979167E+00
        12   4 -2.793006E+00 -5.928932E+00 -2.472616E+02  3.505696E-01  6.972185E-01  7.365021E+00
        12   5  6.784812E-01  1.726038E+00 -5.911277E+01  1.177420E-03 -4.079530E-03  1.294503E+01
        12   6  9.064967E-01  2.186136E+00 -5.887289E+01  8.228630E-02 -7.925560E-02  1.475903E+01
        12   7  5.139823E-01  1.439305E+00 -2.223555E+02  1.278024E-01 -6.370507E-01  3.916632E+00
        12   8  9.305718E-01  2.032667E+00 -2.217844E+02  1.984034E-01 -9.440830E-01  4.379305E+00
        13   1  3.524637E-01  7.124904E-01  2.039049E+02  3.307813E-01 -2.332145E-01  6.345724E+00
        13   2  1.957830E-01  2.701376E-01  2.036036E+02 -7.949856E-02 -3.440140E-01  5.260619E+00
        13   3  9.149775E-01  2.178606E+00  5.542306E+01  2.071010E-01  9.352001E-02  1.301863E+01
        13   4  7.956203E-01  1.871618E+00  5.527285E+01 -2.031827E-01  6.390607E-02  1.137503E+01
        13   5 -3.387219E-01 -8.463111E-01  1.793546E+02 -1.110604E-01 -6.084438E-01  5.123252E+00
        13   6 -1.910183E-01 -5.049796E-01  1.795122E+02 -2.822825E-02 -5.096065E-01  4.372426E+00
        13   7 -4.248985E-01 -9.343071E-01  4.768984E+01 -2.279001E-02  8.964012E-04  1.412715E+01
        13   8 -2.935309E-01 -6.365886E-01  4.783179E+01  2.082620E-02  2.745449E-02  1.237717E+01
        14   1  1.957830E-01  2.701376E-01  2.036036E+02  7.949856E-02  3.440140E-01  5.260619E+00
        14   2  3.524637E-01  7.124904E-01  2.039049E+02 -3.307813E-01  2.332145E-01  6.345724E+00
        14   3  7.956203E-01  1.871618E+00  5.527285E+01  2.031827E-01 -6.390607E-02  1.137503E+01
        14   4  9.149775E-01  2.178606E+00  5.542306E+01 -2.071010E-01 -9.352001E-02  1.301863E+01
        14   5 -1.910183E-01 -5.049796E-01  1.795122E+02  2.822825E-02  5.096065E-01  4.372426E+00
        14   6 -3.387219E-01 -8.463111E-01  1.793546E+02  1.110604E-01  6.084439E-01  5.123252E+00
        14   7 -2.935309E-01 -6.365886E-01  4.783179E+01 -2.082620E-02 -2.745449E-02  1.237717E+01
        14   8 -4.248985E-01 -9.343071E-01  4.768984E+01  2.279001E-02 -8.964012E-04  1.412715E+01
        15   1 -9.149775E-01 -2.178606E+00 -5.542306E+01  2.071010E-01 -9.352001E-02  1.301863E+01
        15   2 -7.956203E-01 -1.871618E+00 -5.527285E+01 -2.031827E-01 -6.390607E-02  1.137503E+01
        15   3 -3.524637E-01 -7.124904E-01 -2.039049E+02  3.307813E-01  2.332145E-01  6.345724E+00
        15   4 -1.957830E-01 -2.701376E-01 -2.036036E+02 -7.949856E-02  3.440140E-01  5.260619E+00
        15   5  4.248985E-01  9.343071E-01 -4.768984E+01 -2.279001E-02 -8.964012E-04  1.412715E+01
        15   6  2.935309E-01  6.365886E-01 -4.783179E+01  2.082620E-02 -2.745449E-02  1.237717E+01
        15   7  3.387219E-01  8.463111E-01 -1.793546E+02 -1.110604E-01  6.084438E-01  5.123252E+00
        15   8  1.910183E-01  5.049796E-01 -1.795122E+02 -2.822825E-02  5.096065E-01  4.372426E+00
        16   1 -7.956203E-01 -1.871618E+00 -5.527285E+01  2.031827E-01  6.390607E-02  1.137503E+01
        16   2 -9.149775E-01 -2.178606E+00 -5.542306E+01 -2.071010E-01  9.352001E-02  1.301863E+01
        16   3 -1.957830E-01 -2.701376E-01 -2.036036E+02  7.949856E-02 -3.440140E-01  5.260619E+00
        16   4 -3.524637E-01 -7.124904E-01 -2.039049E+02 -3.307813E-01 -2.332145E-01  6.345724E+00
        16   5  2.935309E-01  6.365886E-01 -4.783179E+01 -2.082620E-02  2.745449E-02  1.237717E+01
        16   6  4.248985E-01  9.343071E-01 -4.768984E+01  2.279001E-02  8.964012E-04  1.412715E+01
        16   7  1.910183E-01  5.049796E-01 -1.795122E+02  2.822825E-02 -5.096065E-01  4.372426E+00
        16   8  3.387219E-01  8.463111E-01 -1.793546E+02  1.110604E-01 -6.084439E-01  5.123252E+00
        17   1  3.206584E-01  8.341396E-01  1.613684E+02  3.118101E-02 -4.116066E-01  5.641800E+00
        17   2  1.991061E-01  5.539458E-01  1.612641E+02  1.088144E-01 -4.673052E-01  4.825500E+00
        17   3  2.630584E-01  5.934894E-01  4.344488E+01 -4.674249E-02  4.330591E-02  1.363700E+01
        17   4  1.245342E-01  2.771206E-01  4.330504E+01  3.089192E-02  3.655170E-02  1.189570E+01
        17   5 -3.014257E-01 -5.350873E-01  1.367705E+02 -2.536199E-02 -4.348993E-01  5.623251E+00
        17   6 -1.735116E-01 -3.412468E-01  1.368342E+02 -2.139477E-01 -4.948497E-01  4.654796E+00
        17   7 -2.860637E-01 -7.746785E-01  3.643878E+01  6.385627E-02  3.112872E-02  1.368523E+01
        17   8 -1.239150E-01 -4.184301E-01  3.657778E+01  2.162652E-02  2.323526E-02  1.203672E+01
        18   1  1.991061E-01  5.539458E-01  1.612641E+02 -1.088144E-01  4.673052E-01  4.825500E+00
        18   2  3.206584E-01  8.341396E-01  1.613684E+02 -3.118101E-02  4.116066E-01  5.641800E+00
        18   3  1.245342E-01  2.771206E-01  4.330504E+01 -3.089192E-02 -3.655170E-02  1.189570E+01
        18   4  2.630584E-01  5.934894E-01  4.344488E+01  4.674249E-02 -4.330591E-02  1.363700E+01
        18   5 -1.735116E-01 -3.412468E-01  1.368342E+02  2.139477E-01  4.948497E-01  4.654796E+00
        18   6 -3.014257E-01 -5.350873E-01  1.367705E+02  2.536199E-02  4.348993E-01  5.623251E+00
        18   7 -1.239150E-01 -4.184301E-01  3.657778E+01 -2.162652E-02 -2.323526E-02  1.203672E+01
        18   8 -2.860637E-01 -7.746785E-01  3.643878E+01 -6.385627E-02 -3.112872E-02  1.368523E+01
        19   1 -2.630584E-01 -5.934894E-01 -4.344488E+01 -4.674249E-02 -4.330591E-02  1.363700E+01
        19   2 -1.245342E-01 -2.771206E-01 -4.330504E+01  3.089192E-02 -3.655170E-02  1.189570E+01
        19   3 -3.206584E-01 -8.341396E-01 -1.613684E+02  3.118101E-02  4.116066E-01  5.641800E+00
        19   4 -1.991061E-01 -5.539458E-01 -1.612641E+02  1.088144E-01  4.673052E-01  4.825500E+00
        19   5  2.860637E-01  7.746785E-01 -3.643878E+01  6.385627E-02 -3.112872E-02  1.368523E+01
        19   6  1.239150E-01  4.184301E-01 -3.657778E+01  2.162652E-02 -2.323526E-02  1.203672E+01
        19   7  3.014257E-01  5.350873E-01 -1.367705E+02 -2.536199E-02  4.348993E-01  5.623251E+00
        19   8  1.735116E-01  3.412468E-01 -1.368342E+02 -2.139477E-01  4.948497E-01  4.654796E+00
        20   1 -1.245342E-01 -2.771206E-01 -4.330504E+01 -3.089192E-02  3.655170E-02  1.189570E+01
        20   2 -2.630584E-01 -5.934894E-01 -4.344488E+01  4.674249E-02  4.330591E-02  1.363700E+01
        20   3 -1.991061E-01 -5.539458E-01 -1.612641E+02 -1.088144E-01 -4.673052E-01  4.825500E+00
        20   4 -3.206584E-01 -8.341396E-01 -1.613684E+02 -3.118101E-02 -4.116066E-01  5.641800E+00
        20   5  1.239150E-01  4.184301E-01 -3.657778E+01 -2.162652E-02  2.323526E-02  1.203672E+01
        20   6  2.860637E-01  7.746785E-01 -3.643878E+01 -6.385627E-02  3.112872E-02  1.368523E+01
        20   7  1.735116E-01  3.412468E-01 -1.368342E+02  2.139477E-01 -4.948497E-01  4.654796E+00
        20   8  3.014257E-01  5.350873E-01 -1.367705E+02  2.536199E-02 -4.348993E-01  5.623251E+00
        21   1  3.083136E-01  7.098100E-01  1.187749E+02  1.320185E-01 -5.781765E-01  5.308853E+00