
 displacements (vx,vy,vz) for set NALL and time  0.1000000E+01

         1  0.000000E+00  0.000000E+00  0.000000E+00
         2 -2.691358E-04  4.878555E-04 -8.398794E-04
         3 -1.339134E-04  3.706613E-04 -4.071592E-04
         4  0.000000E+00  0.000000E+00  0.000000E+00
         5  0.000000E+00  0.000000E+00  0.000000E+00
         6 -1.240503E-04  5.811826E-04 -8.107422E-04
         7 -6.249218E-05  4.605769E-04 -3.837534E-04
         8  0.000000E+00  0.000000E+00  0.000000E+00
         9 -2.493617E-04  1.754630E-03 -1.659723E-03
        10 -1.243519E-04  1.669332E-03 -8.231241E-04
        11 -1.281187E-04  1.850688E-03 -1.664322E-03
        12 -6.446500E-05  1.762704E-03 -8.265919E-04
        13 -2.308431E-04  3.870851E-03 -2.444200E-03
        14 -1.137720E-04  3.785614E-03 -1.212225E-03
        15 -1.145544E-04  3.957226E-03 -2.448744E-03
        16 -5.680062E-05  3.872192E-03 -1.215997E-03
        17 -2.120378E-04  6.737605E-03 -3.171662E-03
        18 -1.049449E-04  6.659915E-03 -1.576492E-03
        19 -1.058231E-04  6.817578E-03 -3.175584E-03
        20 -5.262634E-05  6.739382E-03 -1.579502E-03
        21 -1.946606E-04  1.030237E-02 -3.840107E-03
        22 -9.624363E-05  1.023100E-02 -1.910729E-03
        23 -9.707026E-05  1.037563E-02 -3.843956E-03
        24 -4.826874E-05  1.030391E-02 -1.913783E-03
        25 -1.769385E-04  1.450646E-02 -4.450480E-03
        26 -8.750022E-05  1.444163E-02 -2.215896E-03
        27 -8.825418E-05  1.457309E-02 -4.454372E-03
        28 -4.388260E-05  1.450791E-02 -2.218957E-03
        29 -1.592445E-04  1.929192E-02 -5.002722E-03
        30 -7.874756E-05  1.923355E-02 -2.492020E-03
        31 -7.942315E-05  1.935188E-02 -5.006611E-03
        32 -3.949238E-05  1.929321E-02 -2.495084E-03
        33 -1.415504E-04  2.460054E-02 -5.496839E-03
        34 -6.999785E-05  2.454867E-02 -2.739078E-03
        35 -7.059914E-05  2.465384E-02 -5.500727E-03
        36 -3.510443E-05  2.460169E-02 -2.742141E-03
        37 -1.238567E-04  3.037422E-02 -5.932822E-03
        38 -6.124828E-05  3.032883E-02 -2.957070E-03
        39 -6.177423E-05  3.042085E-02 -5.936710E-03
        40 -3.071641E-05  3.037522E-02 -2.960133E-03
        41 -1.061632E-04  3.655481E-02 -6.310675E-03
        42 -5.249821E-05  3.651590E-02 -3.145996E-03
        43 -5.294928E-05  3.659478E-02 -6.314563E-03
        44 -2.632851E-05  3.655567E-02 -3.149059E-03
        45 -8.846713E-05  4.308419E-02 -6.630395E-03
        46 -4.375010E-05  4.305177E-02 -3.305857E-03
        47 -4.412457E-05  4.311750E-02 -6.634282E-03
        48 -2.193997E-05  4.308491E-02 -3.308921E-03
        49 -7.078322E-05  4.990424E-02 -6.891986E-03
        50 -3.499094E-05  4.987828E-02 -3.436655E-03
        51 -3.529839E-05  4.993087E-02 -6.895880E-03
        52 -1.755130E-05  4.990479E-02 -3.439711E-03
        53 -5.305336E-05  5.695674E-02 -7.095492E-03
        54 -2.627985E-05  5.693735E-02 -3.538351E-03
        55 -2.647084E-05  5.697679E-02 -7.099331E-03
        56 -1.316992E-05  5.695725E-02 -3.541431E-03
        57 -3.552333E-05  6.418411E-02 -7.240489E-03
        58 -1.749112E-05  6.417075E-02 -3.611307E-03
        59 -1.778053E-05  6.419708E-02 -7.244600E-03
        60 -8.815282E-06  6.418387E-02 -3.614318E-03
        61 -1.744387E-05  7.152381E-02 -7.328215E-03
        62 -8.307767E-06  7.152008E-02 -3.653049E-03
        63 -8.188516E-06  7.153275E-02 -7.332037E-03
        64 -4.010041E-06  7.152762E-02 -3.656646E-03
        65  6.271498E-06  7.895238E-02 -7.363138E-03
        66  4.427401E-07  7.893753E-02 -3.669201E-03
        67  3.405948E-06  7.893519E-02 -7.364492E-03
        68 -4.063634E-07  7.892672E-02 -3.672511E-03
        69  0.000000E+00  0.000000E+00  0.000000E+00
        70 -7.674787E-16  6.092424E-04 -8.135916E-04
        71 -8.232569E-16  4.854309E-04 -3.811918E-04
        72  0.000000E+00  0.000000E+00  0.000000E+00
        73 -3.143753E-15  1.881956E-03 -1.660431E-03
        74 -3.109609E-15  1.794404E-03 -8.246425E-04
        75 -6.836284E-15  3.986053E-03 -2.450081E-03
        76 -6.694018E-15  3.900739E-03 -1.217484E-03
        77 -1.171569E-14  6.843892E-03 -3.175880E-03
        78 -1.146096E-14  6.765916E-03 -1.580246E-03
        79 -1.763765E-14  1.039986E-02 -3.844334E-03
        80 -1.728187E-14  1.032814E-02 -1.914546E-03
        81 -2.448215E-14  1.459509E-02 -4.454741E-03
        82 -2.403216E-14  1.452996E-02 -2.219734E-03
        83 -3.212421E-14  1.937168E-02 -5.006985E-03
        84 -3.159190E-14  1.931305E-02 -2.495859E-03
        85 -4.044725E-14  2.467144E-02 -5.501100E-03
        86 -3.982093E-14  2.461933E-02 -2.742916E-03
        87 -4.932841E-14  3.043625E-02 -5.937083E-03
        88 -4.861860E-14  3.039065E-02 -2.960907E-03
        89 -5.863214E-14  3.660799E-02 -6.314936E-03
        90 -5.786273E-14  3.656890E-02 -3.149834E-03
        91 -6.821377E-14  4.312850E-02 -6.634657E-03
        92 -6.739230E-14  4.309593E-02 -3.309695E-03
        93 -7.797162E-14  4.993968E-02 -6.896246E-03
        94 -7.715834E-14  4.991362E-02 -3.440487E-03
        95 -8.792474E-14  5.698335E-02 -7.099702E-03
        96 -8.708627E-14  5.696383E-02 -3.542201E-03
        97 -9.803464E-14  6.420166E-02 -7.245115E-03
        98 -9.716337E-14  6.418842E-02 -3.615122E-03
        99 -1.081270E-13  7.153444E-02 -7.331913E-03
       100 -1.072215E-13  7.152941E-02 -3.657465E-03
       101 -1.182023E-13  7.893300E-02 -7.363258E-03
       102 -1.173058E-13  7.892421E-02 -3.673170E-03
       103  0.000000E+00  0.000000E+00  0.000000E+00
       104  1.240503E-04  5.811826E-04 -8.107422E-04
       105  6.249218E-05  4.605769E-04 -3.837534E-04
       106  0.000000E+00  0.000000E+00  0.000000E+00
       107  1.281187E-04  1.850688E-03 -1.664322E-03
       108  6.446500E-05  1.762704E-03 -8.265919E-04
       109  1.145544E-04  3.957226E-03 -2.448744E-03
       110  5.680062E-05  3.872192E-03 -1.215997E-03
       111  1.058231E-04  6.817578E-03 -3.175584E-03
       112  5.262634E-05  6.739382E-03 -1.579502E-03
       113  9.707026E-05  1.037563E-02 -3.843956E-03
       114  4.826874E-05  1.030391E-02 -1.913783E-03
       115  8.825418E-05  1.457309E-02 -4.454372E-03
       116  4.388260E-05  1.450791E-02 -2.218957E-03
       117  7.942315E-05  1.935188E-02 -5.006611E-03
       118  3.949238E-05  1.929321E-02 -2.495084E-03
       119  7.059914E-05  2.465384E-02 -5.500727E-03
       120  3.510443E-05  2.460169E-02 -2.742141E-03
       121  6.177423E-05  3.042085E-02 -5.936710E-03
       122  3.071641E-05  3.037522E-02 -2.960133E-03
       123  5.294928E-05  3.659478E-02 -6.314563E-03
       124  2.632851E-05  3.655567E-02 -3.149059E-03
       125  4.412457E-05  4.311750E-02 -6.634282E-03
       126  2.193997E-05  4.308491E-02 -3.308921E-03
       127  3.529839E-05  4.993087E-02 -6.895880E-03
       128  1.755130E-05  4.990479E-02 -3.439711E-03
       129  2.647084E-05  5.697679E-02 -7.099331E-03
       130  1.316992E-05  5.695725E-02 -3.541431E-03
       131  1.778053E-05  6.419708E-02 -7.244600E-03
       132  8.815282E-06  6.418387E-02 -3.614318E-03
       133  8.188516E-06  7.153275E-02 -7.332037E-03
       134  4.010041E-06  7.152762E-02 -3.656646E-03
       135 -3.405948E-06  7.893519E-02 -7.364492E-03
       136  4.063632E-07  7.892672E-02 -3.672511E-03
       137  0.000000E+00  0.000000E+00  0.000000E+00
       138  2.691358E-04  4.878555E-04 -8.398794E-04
       139  1.339134E-04  3.706613E-04 -4.071592E-04
       140  0.000000E+00  0.000000E+00  0.000000E+00
       141  2.493617E-04  1.754630E-03 -1.659723E-03
       142  1.243519E-04  1.669332E-03 -8.231241E-04
       143  2.308431E-04  3.870851E-03 -2.444200E-03
       144  1.137720E-04  3.785614E-03 -1.212225E-03
       145  2.120378E-04  6.737605E-03 -3.171662E-03
       146  1.049449E-04  6.659915E-03 -1.576492E-03
       147  1.946606E-04  1.030237E-02 -3.840107E-03
       148  9.624363E-05  1.023100E-02 -1.910729E-03
       149  1.769385E-04  1.450646E-02 -4.450480E-03
       150  8.750022E-05  1.444163E-02 -2.215896E-03
       151  1.592445E-04  1.929192E-02 -5.002722E-03
       152  7.874756E-05  1.923355E-02 -2.492020E-03
       153  1.415504E-04  2.460054E-02 -5.496839E-03
       154  6.999785E-05  2.454867E-02 -2.739078E-03
       155  1.238567E-04  3.037422E-02 -5.932822E-03
       156  6.124828E-05  3.032883E-02 -2.957070E-03
       157  1.061632E-04  3.655481E-02 -6.310675E-03
       158  5.249821E-05  3.651590E-02 -3.145996E-03
       159  8.846713E-05  4.308419E-02 -6.630395E-03
       160  4.375010E-05  4.305177E-02 -3.305857E-03
       161  7.078322E-05  4.990424E-02 -6.891986E-03
       162  3.499094E-05  4.987828E-02 -3.436655E-03
       163  5.305336E-05  5.695674E-02 -7.095492E-03
       164  2.627985E-05  5.693735E-02 -3.538351E-03
       165  3.552333E-05  6.418411E-02 -7.240489E-03
       166  1.749112E-05  6.417075E-02 -3.611307E-03
       167  1.744387E-05  7.152381E-02 -7.328215E-03
       168  8.307767E-06  7.152008E-02 -3.653049E-03
       169 -6.271498E-06  7.895238E-02 -7.363138E-03
       170 -4.427404E-07  7.893753E-02 -3.669201E-03
       171 -1.041451E-15  3.337725E-04 -1.358169E-15
       172  0.000000E+00  0.000000E+00  0.000000E+00
       173 -8.363601E-16  4.230466E-04 -6.333019E-16
       174  0.000000E+00  0.000000E+00  0.000000E+00
       175 -3.169962E-15  1.639023E-03 -2.741566E-15
       176 -3.029220E-15  1.731248E-03 -1.360173E-15
       177 -6.637880E-15  3.758029E-03 -4.000624E-15
       178 -6.503383E-15  3.844395E-03 -1.987912E-15
       179 -1.129203E-14  6.633823E-03 -5.124495E-15
       180 -1.117253E-14  6.712961E-03 -2.550959E-15
       181 -1.699704E-14  1.020730E-02 -6.127030E-15
       182 -1.689297E-14  1.027990E-02 -3.053864E-15
       183 -2.364645E-14  1.442003E-02 -6.999718E-15
       184 -2.355063E-14  1.448604E-02 -3.491920E-15
       185 -3.109824E-14  1.921413E-02 -7.749227E-15
       186 -3.102195E-14  1.927353E-02 -3.866861E-15
       187 -3.924149E-14  2.453140E-02 -8.381399E-15
       188 -3.917499E-14  2.458420E-02 -4.181185E-15
       189 -4.795854E-14  3.031371E-02 -8.885904E-15
       190 -4.790070E-14  3.035992E-02 -4.432544E-15
       191 -5.710894E-14  3.650295E-02 -9.277281E-15
       192 -5.707463E-14  3.654255E-02 -4.630041E-15
       193 -6.659661E-14  4.304097E-02 -9.573641E-15
       194 -6.656878E-14  4.307397E-02 -4.782750E-15
       195 -7.634605E-14  4.986967E-02 -9.787366E-15
       196 -7.633163E-14  4.989606E-02 -4.893662E-15
       197 -8.624232E-14  5.693082E-02 -9.954304E-15
       198 -8.623650E-14  5.695067E-02 -4.976999E-15
       199 -9.626966E-14  6.416644E-02 -1.004322E-14
       200 -9.626391E-14  6.417948E-02 -5.027445E-15
       201 -1.063350E-13  7.151905E-02 -1.008057E-14
       202 -1.063351E-13  7.152623E-02 -5.043343E-15
       203 -1.164257E-13  7.893123E-02 -1.008850E-14
       204 -1.163977E-13  7.892259E-02 -5.058562E-15
       205 -7.737792E-16  4.475182E-04 -2.275469E-18
       206  0.000000E+00  0.000000E+00  0.000000E+00
       207 -2.977002E-15  1.762508E-03 -5.076268E-18
       208 -6.459739E-15  3.873188E-03 -7.013433E-18
       209 -1.113086E-14  6.739632E-03 -1.026060E-17
       210 -1.685898E-14  1.030425E-02 -1.467061E-17
       211 -2.352120E-14  1.450820E-02 -1.641369E-17
       212 -3.099634E-14  1.929347E-02 -1.436886E-17
       213 -3.915856E-14  2.460192E-02 -1.503254E-17
       214 -4.788533E-14  3.037543E-02 -9.486199E-18
       215 -5.706622E-14  3.655585E-02 -8.768485E-18
       216 -6.656247E-14  4.308505E-02 -1.425726E-17
       217 -7.631066E-14  4.990493E-02 -1.132934E-17
       218 -8.623397E-14  5.695728E-02 -1.870249E-17
       219 -9.627455E-14  6.418406E-02 -1.499918E-17
       220 -1.063319E-13  7.152792E-02 -2.553296E-17
       221 -1.163982E-13  7.892072E-02 -2.058377E-17
       222 -8.355406E-16  4.230466E-04  6.289522E-16
       223  0.000000E+00  0.000000E+00  0.000000E+00
       224 -3.027959E-15  1.731248E-03  1.350093E-15
       225 -6.503008E-15  3.844395E-03  1.972896E-15
       226 -1.116764E-14  6.712961E-03  2.529566E-15
       227 -1.689312E-14  1.027990E-02  3.024069E-15
       228 -2.355166E-14  1.448604E-02  3.461776E-15
       229 -3.102252E-14  1.927353E-02  3.835636E-15
       230 -3.917884E-14  2.458420E-02  4.153958E-15
       231 -4.790319E-14  3.035992E-02  4.410643E-15
       232 -5.708507E-14  3.654255E-02  4.611254E-15
       233 -6.656560E-14  4.307397E-02  4.757466E-15
       234 -7.631389E-14  4.989606E-02  4.867198E-15
       235 -8.623969E-14  5.695067E-02  4.946239E-15
       236 -9.627065E-14  6.417948E-02  4.993645E-15
       237 -1.063388E-13  7.152623E-02  5.004677E-15
       238 -1.164100E-13  7.892259E-02  5.000792E-15
       239 -1.039585E-15  3.337725E-04  1.353558E-15
       240  0.000000E+00  0.000000E+00  0.000000E+00
       241 -3.168393E-15  1.639023E-03  2.731532E-15
       242 -6.636929E-15  3.758029E-03  3.985122E-15
       243 -1.128481E-14  6.633823E-03  5.102906E-15
       244 -1.699690E-14  1.020730E-02  6.095879E-15
       245 -2.364092E-14  1.442003E-02  6.969360E-15
       246 -3.110220E-14  1.921413E-02  7.723864E-15
       247 -3.923803E-14  2.453140E-02  8.353371E-15
       248 -4.795927E-14  3.031371E-02  8.861818E-15
       249 -5.711984E-14  3.650295E-02  9.259615E-15
       250 -6.659331E-14  4.304097E-02  9.545716E-15
       251 -7.632993E-14  4.986967E-02  9.772971E-15
       252 -8.625657E-14  5.693082E-02  9.917414E-15
       253 -9.626122E-14  6.416644E-02  1.001320E-14
       254 -1.063553E-13  7.151905E-02  1.003928E-14
       255 -1.164067E-13  7.893123E-02  1.002212E-14
       256  1.339134E-04  3.706613E-04  4.071592E-04
       257  0.000000E+00  0.000000E+00  0.000000E+00
       258  6.249218E-05  4.605769E-04  3.837534E-04
       259  0.000000E+00  0.000000E+00  0.000000E+00
       260  1.243519E-04  1.669332E-03  8.231241E-04
       261  6.446500E-05  1.762704E-03  8.265919E-04
       262  1.137720E-04  3.785614E-03  1.212225E-03
       263  5.680062E-05  3.872192E-03  1.215997E-03
       264  1.049449E-04  6.659915E-03  1.576492E-03
       265  5.262634E-05  6.739382E-03  1.579502E-03
       266  9.624363E-05  1.023100E-02  1.910729E-03
       267  4.826874E-05  1.030391E-02  1.913783E-03
       268  8.750022E-05  1.444163E-02  2.215896E-03
       269  4.388260E-05  1.450791E-02  2.218957E-03
       270  7.874756E-05  1.923355E-02  2.492020E-03
       271  3.949238E-05  1.929321E-02  2.495084E-03
       272  6.999785E-05  2.454867E-02  2.739078E-03
       273  3.510443E-05  2.460169E-02  2.742141E-03
       274  6.124828E-05  3.032883E-02  2.957070E-03
       275  3.071641E-05  3.037522E-02  2.960133E-03
       276  5.249821E-05  3.651590E-02  3.145996E-03
       277  2.632851E-05  3.655567E-02  3.149059E-03
       278  4.375010E-05  4.305177E-02  3.305857E-03
       279  2.193997E-05  4.308491E-02  3.308921E-03
       280  3.499094E-05  4.987828E-02  3.436655E-03
       281  1.755130E-05  4.990479E-02  3.439711E-03
       282  2.627985E-05  5.693735E-02  3.538351E-03
       283  1.316992E-05  5.695725E-02  3.541431E-03
       284  1.749112E-05  6.417075E-02  3.611307E-03
       285  8.815282E-06  6.418387E-02  3.614318E-03
       286  8.307767E-06  7.152008E-02  3.653049E-03
       287  4.010041E-06  7.152762E-02  3.656646E-03
       288 -4.427404E-07  7.893753E-02  3.669201E-03
       289  4.063632E-07  7.892672E-02  3.672511E-03
       290 -6.440621E-16  4.854309E-04  3.811918E-04
       291  0.000000E+00  0.000000E+00  0.000000E+00
       292 -2.743187E-15  1.794404E-03  8.246425E-04
       293 -6.137114E-15  3.900739E-03  1.217484E-03
       294 -1.071691E-14  6.765916E-03  1.580246E-03
       295 -1.636056E-14  1.032814E-02  1.914546E-03
       296 -2.294986E-14  1.452996E-02  2.219734E-03
       297 -3.034920E-14  1.931305E-02  2.495859E-03
       298 -3.844864E-14  2.461933E-02  2.742916E-03
       299 -4.711964E-14  3.039065E-02  2.960907E-03
       300 -5.625502E-14  3.656890E-02  3.149834E-03
       301 -6.570518E-14  4.309593E-02  3.309695E-03
       302 -7.544841E-14  4.991362E-02  3.440487E-03
       303 -8.536173E-14  5.696383E-02  3.542201E-03
       304 -9.537521E-14  6.418842E-02  3.615122E-03
       305 -1.054508E-13  7.152941E-02  3.657465E-03
       306 -1.155161E-13  7.892421E-02  3.673170E-03
       307 -6.249218E-05  4.605769E-04  3.837534E-04
       308  0.000000E+00  0.000000E+00  0.000000E+00
       309 -6.446500E-05  1.762704E-03  8.265919E-04
       310 -5.680062E-05  3.872192E-03  1.215997E-03
       311 -5.262634E-05  6.739382E-03  1.579502E-03
       312 -4.826874E-05  1.030391E-02  1.913783E-03
       313 -4.388260E-05  1.450791E-02  2.218957E-03
       314 -3.949238E-05  1.929321E-02  2.495084E-03
       315 -3.510443E-05  2.460169E-02  2.742141E-03
       316 -3.071641E-05  3.037522E-02  2.960133E-03
       317 -2.632851E-05  3.655567E-02  3.149059E-03
       318 -2.193997E-05  4.308491E-02  3.308921E-03
       319 -1.755130E-05  4.990479E-02  3.439711E-03
       320 -1.316992E-05  5.695725E-02  3.541431E-03
       321 -8.815282E-06  6.418387E-02  3.614318E-03
       322 -4.010041E-06  7.152762E-02  3.656646E-03
       323 -4.063634E-07  7.892672E-02  3.672511E-03
       324 -1.339134E-04  3.706613E-04  4.071592E-04
       325  0.000000E+00  0.000000E+00  0.000000E+00
       326 -1.243519E-04  1.669332E-03  8.231241E-04
       327 -1.137720E-04  3.785614E-03  1.212225E-03
       328 -1.049449E-04  6.659915E-03  1.576492E-03
       329 -9.624363E-05  1.023100E-02  1.910729E-03
       330 -8.750022E-05  1.444163E-02  2.215896E-03
       331 -7.874756E-05  1.923355E-02  2.492020E-03
       332 -6.999785E-05  2.454867E-02  2.739078E-03
       333 -6.124828E-05  3.032883E-02  2.957070E-03
       334 -5.249821E-05  3.651590E-02  3.145996E-03
       335 -4.375010E-05  4.305177E-02  3.305857E-03
       336 -3.499094E-05  4.987828E-02  3.436655E-03
       337 -2.627985E-05  5.693735E-02  3.538351E-03
       338 -1.749112E-05  6.417075E-02  3.611307E-03
       339 -8.307767E-06  7.152008E-02  3.653049E-03
       340  4.427401E-07  7.893753E-02  3.669201E-03
       341  2.691358E-04  4.878555E-04  8.398794E-04
       342  0.000000E+00  0.000000E+00  0.000000E+00
       343  1.240503E-04  5.811826E-04  8.107422E-04
       344  0.000000E+00  0.000000E+00  0.000000E+00
       345  2.493617E-04  1.754630E-03  1.659723E-03
       346  1.281187E-04  1.850688E-03  1.664322E-03
       347  2.308431E-04  3.870851E-03  2.444200E-03
       348  1.145544E-04  3.957226E-03  2.448744E-03
       349  2.120378E-04  6.737605E-03  3.171662E-03
       350  1.058231E-04  6.817578E-03  3.175584E-03
       351  1.946606E-04  1.030237E-02  3.840107E-03
       352  9.707026E-05  1.037563E-02  3.843956E-03
       353  1.769385E-04  1.450646E-02  4.450480E-03
       354  8.825418E-05  1.457309E-02  4.454372E-03
       355  1.592445E-04  1.929192E-02  5.002722E-03
       356  7.942315E-05  1.935188E-02  5.006611E-03
       357  1.415504E-04  2.460054E-02  5.496839E-03
       358  7.059914E-05  2.465384E-02  5.500727E-03
       359  1.238567E-04  3.037422E-02  5.932822E-03
       360  6.177423E-05  3.042085E-02  5.936710E-03
       361  1.061632E-04  3.655481E-02  6.310675E-03
       362  5.294928E-05  3.659478E-02  6.314563E-03
       363  8.846713E-05  4.308419E-02  6.630395E-03
       364  4.412457E-05  4.311750E-02  6.634282E-03
       365  7.078322E-05  4.990424E-02  6.891986E-03
       366  3.529839E-05  4.993087E-02  6.895880E-03
       367  5.305336E-05  5.695674E-02  7.095492E-03
       368  2.647084E-05  5.697679E-02  7.099331E-03
       369  3.552333E-05  6.418411E-02  7.240489E-03
       370  1.778053E-05  6.419708E-02  7.244600E-03
       371  1.744387E-05  7.152381E-02  7.328215E-03
       372  8.188516E-06  7.153275E-02  7.332037E-03
       373 -6.271498E-06  7.895238E-02  7.363138E-03
       374 -3.405948E-06  7.893519E-02  7.364492E-03
       375 -4.061286E-16  6.092424E-04  8.135916E-04
       376  0.000000E+00  0.000000E+00  0.000000E+00
       377 -2.411808E-15  1.881956E-03  1.660431E-03
       378 -5.723070E-15  3.986053E-03  2.450081E-03
       379 -1.022430E-14  6.843892E-03  3.175880E-03
       380 -1.579629E-14  1.039986E-02  3.844334E-03
       381 -2.231781E-14  1.459509E-02  4.454741E-03
       382 -2.965960E-14  1.937168E-02  5.006985E-03
       383 -3.769702E-14  2.467144E-02  5.501100E-03
       384 -4.632579E-14  3.043625E-02  5.937083E-03
       385 -5.540208E-14  3.660799E-02  6.314936E-03
       386 -6.484624E-14  4.312850E-02  6.634657E-03
       387 -7.456687E-14  4.993968E-02  6.896246E-03
       388 -8.448155E-14  5.698335E-02  7.099702E-03
       389 -9.447261E-14  6.420166E-02  7.245115E-03
       390 -1.045656E-13  7.153444E-02  7.331913E-03
       391 -1.146414E-13  7.893300E-02  7.363258E-03
       392 -1.240503E-04  5.811826E-04  8.107422E-04
       393  0.000000E+00  0.000000E+00  0.000000E+00
       394 -1.281187E-04  1.850688E-03  1.664322E-03
       395 -1.145544E-04  3.957226E-03  2.448744E-03
       396 -1.058231E-04  6.817578E-03  3.175584E-03
       397 -9.707026E-05  1.037563E-02  3.843956E-03
       398 -8.825418E-05  1.457309E-02  4.454372E-03
       399 -7.942315E-05  1.935188E-02  5.006611E-03
       400 -7.059914E-05  2.465384E-02  5.500727E-03
       401 -6.177423E-05  3.042085E-02  5.936710E-03
       402 -5.294928E-05  3.659478E-02  6.314563E-03
       403 -4.412457E-05  4.311750E-02  6.634282E-03
       404 -3.529839E-05  4.993087E-02  6.895880E-03
       405 -2.647084E-05  5.697679E-02  7.099331E-03
       406 -1.778053E-05  6.419708E-02  7.244600E-03
       407 -8.188516E-06  7.153275E-02  7.332037E-03
       408  3.405948E-06  7.893519E-02  7.364492E-03
       409 -2.691358E-04  4.878555E-04  8.398794E-04
       410  0.000000E+00  0.000000E+00  0.000000E+00
       411 -2.493617E-04  1.754630E-03  1.659723E-03
       412 -2.308431E-04  3.870851E-03  2.444200E-03
       413 -2.120378E-04  6.737605E-03  3.171662E-03
       414 -1.946606E-04  1.030237E-02  3.840107E-03
       415 -1.769385E-04  1.450646E-02  4.450480E-03
       416 -1.592445E-04  1.929192E-02  5.002722E-03
       417 -1.415504E-04  2.460054E-02  5.496839E-03
       418 -1.238567E-04  3.037422E-02  5.932822E-03
       419 -1.061632E-04  3.655481E-02  6.310675E-03
       420 -8.846713E-05  4.308419E-02  6.630395E-03
       421 -7.078322E-05  4.990424E-02  6.891986E-03
       422 -5.305336E-05  5.695674E-02  7.095492E-03
       423 -3.552333E-05  6.418411E-02  7.240489E-03
       424 -1.744387E-05  7.152381E-02  7.328215E-03
       425  6.271498E-06  7.895238E-02  7.363138E-03

 stresses (elem, integ.pnt.,sxx,syy,szz,sxy,sxz,syz) for set EALL and time  0.1000000E+01

         1   1 -1.368960E+02 -1.384804E+02 -3.944770E+02 -1.846760E+00 -3.253168E+01  4.850714E+01
         1   2 -1.934810E+01 -2.526119E+01 -3.252468E+02 -6.892203E+00 -2.732268E+01 -3.198161E+01
         1   3 -8.669244E+01 -8.246943E+01 -2.579772E+02 -1.981229E+00 -2.159803E+01  3.750987E+01
         1   4  3.089696E+00  1.885018E+01 -2.006467E+02 -7.394048E+00 -1.700627E+01 -4.297888E+01
         1   5 -1.327876E+02 -1.341030E+02 -3.851595E+02  1.056949E+00 -2.045223E+01  5.736990E+01
         1   6 -1.468859E+01 -1.959799E+01 -3.153783E+02  3.944586E+00 -1.524324E+01 -2.250161E+01
         1   7 -8.304692E+01 -7.855497E+01 -2.497399E+02  9.224799E-01 -1.348513E+01  4.618894E+01
         1   8  7.286286E+00  2.405046E+01 -1.918583E+02  3.442742E+00 -8.893368E+00 -3.368257E+01
         2   1  1.561402E+01  6.640689E+00 -3.046768E+02 -8.022396E+00  8.938501E+00  3.873598E+01
         2   2 -7.220744E+00 -2.022612E+01 -3.195873E+02 -6.064700E+00  2.916321E+00 -3.686951E+01
         2   3  2.592447E+01  4.346181E+01 -1.922502E+02 -8.630083E+00  7.430030E+00  4.172506E+01
         2   4  7.728940E+00  1.858324E+01 -2.051724E+02 -6.594174E+00  2.146849E+00 -3.388043E+01
         2   5  1.200891E+01  4.250955E+00 -3.143041E+02  5.232937E+00  6.957428E+00  3.980352E+01
         2   6 -1.094317E+01 -2.288960E+01 -3.293319E+02  5.865138E+00  9.352480E-01 -3.654097E+01
         2   7  2.287361E+01  4.162632E+01 -2.005842E+02  4.625251E+00  6.111706E+00  4.283171E+01
         2   8  4.560765E+00  1.647401E+01 -2.136238E+02  5.335664E+00  8.285239E-01 -3.351277E+01
         3   1 -6.941970E+00 -2.089725E+01 -3.027415E+02 -5.454888E+00  1.156072E+00  4.419153E+01
         3   2 -1.008307E+01 -2.260145E+01 -3.041951E+02 -5.746549E+00  1.151991E+00 -2.954313E+01
         3   3  8.583949E+00  1.735729E+01 -1.907523E+02 -5.841930E+00  6.526228E-01  4.425419E+01
         3   4  6.211323E+00  1.598242E+01 -1.918766E+02 -5.822670E+00  6.099098E-01 -2.948047E+01
         3   5 -6.364468E+00 -1.954566E+01 -3.021681E+02  5.909419E+00  7.341960E-01  4.314872E+01
         3   6 -9.971947E+00 -2.233809E+01 -3.040881E+02  5.398195E+00  7.301141E-01 -3.054731E+01
         3   7  9.132477E+00  1.867990E+01 -1.902465E+02  5.522377E+00  3.405280E-01  4.336683E+01
         3   8  6.293470E+00  1.621681E+01 -1.918372E+02  5.322074E+00  2.978151E-01 -3.032920E+01
         4   1 -1.922295E+00 -1.370563E+01 -2.779288E+02 -5.697627E+00  1.021350E+00  4.025088E+01
         4   2 -9.820761E+00 -2.103278E+01 -2.824965E+02 -5.272308E+00  1.143025E+00 -2.750089E+01
         4   3  1.091413E+01  2.083216E+01 -1.756393E+02 -5.687849E+00  3.471208E-01  4.094074E+01
         4   4  5.059023E+00  1.438074E+01 -1.793312E+02 -5.338771E+00  4.839267E-01 -2.681102E+01
         4   5 -1.845705E+00 -1.364859E+01 -2.777306E+02  5.153059E+00  1.886546E-01  3.949024E+01
         4   6 -9.629811E+00 -2.070890E+01 -2.821839E+02  4.994560E+00  3.103298E-01 -2.827666E+01
         4   7  1.100206E+01  2.090055E+01 -1.754145E+02  5.162837E+00 -1.936654E-01  4.014198E+01
         4   8  5.261322E+00  1.471597E+01 -1.789921E+02  4.928097E+00 -5.685948E-02 -2.762491E+01
         5   1 -2.422234E+00 -1.323885E+01 -2.557778E+02 -5.041857E+00  1.045894E+00  3.759353E+01
         5   2 -9.240336E+00 -1.954801E+01 -2.597160E+02 -4.837574E+00  1.054931E+00 -2.474130E+01
         5   3  9.733359E+00  1.868562E+01 -1.615185E+02 -5.130277E+00  4.866747E-01  3.818627E+01
         5   4  4.528767E+00  1.306797E+01 -1.647652E+02 -4.909741E+00  4.830419E-01 -2.414856E+01
         5   5 -2.282826E+00 -1.292260E+01 -2.556294E+02  4.842580E+00  3.259127E-01  3.680532E+01
         5   6 -9.125308E+00 -1.928864E+01 -2.595919E+02  4.585860E+00  3.349500E-01 -2.551684E+01
         5   7  9.863264E+00  1.899236E+01 -1.613922E+02  4.754160E+00 -2.805049E-03  3.740619E+01
         5   8  4.634293E+00  1.331782E+01 -1.646633E+02  4.513693E+00 -6.437894E-03 -2.491597E+01
         6   1 -1.721568E+00 -1.165023E+01 -2.332823E+02 -4.668277E+00  1.093494E+00  3.488911E+01
         6   2 -8.736288E+00 -1.813842E+01 -2.373332E+02 -4.410030E+00  1.086827E+00 -2.204192E+01
         6   3  9.212828E+00  1.743495E+01 -1.472661E+02 -4.734394E+00  4.954098E-01  3.549844E+01
         6   4  3.912631E+00  1.168156E+01 -1.505822E+02 -4.475871E+00  4.925562E-01 -2.143259E+01
         6   5 -1.627393E+00 -1.142382E+01 -2.331948E+02  4.407116E+00  3.525325E-01  3.412084E+01
         6   6 -8.642526E+00 -1.791298E+01 -2.372461E+02  4.175499E+00  3.458653E-01 -2.281400E+01
         6   7  9.309864E+00  1.766422E+01 -1.471720E+02  4.340999E+00 -6.199605E-04  3.473031E+01
         6   8  4.009253E+00  1.190986E+01 -1.504884E+02  4.109658E+00 -3.473517E-03 -2.220453E+01
         7   1 -1.259919E+00 -1.027354E+01 -2.108944E+02 -4.224830E+00  1.082400E+00  3.217789E+01
         7   2 -8.237676E+00 -1.671639E+01 -2.149205E+02 -3.977103E+00  1.082836E+00 -1.932582E+01
         7   3  8.566972E+00  1.601100E+01 -1.331061E+02 -4.288764E+00  4.918145E-01  3.278206E+01
         7   4  3.285550E+00  1.029515E+01 -1.364053E+02 -4.036102E+00  4.915775E-01 -1.872165E+01
         7   5 -1.163691E+00 -1.004944E+01 -2.107977E+02  4.003996E+00  3.445069E-01  3.140193E+01
         7   6 -8.148851E+00 -1.650957E+01 -2.148313E+02  3.767055E+00  3.449429E-01 -2.010110E+01
         7   7  8.662695E+00  1.623459E+01 -1.330106E+02  3.940062E+00 -3.745447E-03  3.200857E+01
         7   8  3.373870E+00  1.050147E+01 -1.363172E+02  3.708057E+00 -3.982456E-03 -1.949447E+01
         8   1 -7.526450E-01 -8.841396E+00 -1.884791E+02 -3.795084E+00  1.082785E+00  2.946698E+01
         8   2 -7.738884E+00 -1.529713E+01 -1.925117E+02 -3.545524E+00  1.082932E+00 -1.661651E+01
         8   3  7.948312E+00  1.463765E+01 -1.189166E+02 -3.851043E+00  4.911775E-01  3.007277E+01
         8   4  2.661387E+00  8.910192E+00 -1.222209E+02 -3.598115E+00  4.914218E-01 -1.601072E+01
         8   5 -6.685955E-01 -8.645428E+00 -1.883949E+02  3.593962E+00  3.443735E-01  2.869269E+01
         8   6 -7.659886E+00 -1.511295E+01 -1.924326E+02  3.358004E+00  3.445211E-01 -1.739090E+01
         8   7  8.032434E+00  1.483369E+01 -1.188322E+02  3.538003E+00 -4.474724E-03  2.930016E+01
         8   8  2.740458E+00  9.094446E+00 -1.221416E+02  3.305412E+00 -4.230428E-03 -1.678343E+01
         9   1 -2.547537E-01 -7.424266E+00 -1.660685E+02 -3.362936E+00  1.082950E+00  2.675621E+01
         9   2 -7.239140E+00 -1.387710E+01 -1.700997E+02 -3.113656E+00  1.082926E+00 -1.390543E+01
         9   3  7.322946E+00  1.324974E+01 -1.047329E+02 -3.412924E+00  4.914754E-01  2.736163E+01
         9   4  2.037425E+00  7.524985E+00 -1.080360E+02 -3.159899E+00  4.914280E-01 -1.330001E+01
         9   5 -1.797891E-01 -7.249326E+00 -1.659936E+02  3.185215E+00  3.446448E-01  2.598166E+01
         9   6 -7.169793E+00 -1.371527E+01 -1.700304E+02  2.949105E+00  3.446216E-01 -1.467995E+01
         9   7  7.397893E+00  1.342466E+01 -1.046580E+02  3.135227E+00 -4.134621E-03  2.658895E+01
         9   8  2.106754E+00  7.686800E+00 -1.079667E+02  2.902862E+00 -4.181994E-03 -1.407266E+01
        10   1  2.451378E-01 -6.003636E+00 -1.436573E+02 -2.931247E+00  1.082905E+00  2.404554E+01