
 displacements (vx,vy,vz) for set NALL and time  0.1000000E+01

         1  0.000000E+00  0.000000E+00  0.000000E+00
         2  0.000000E+00  0.000000E+00  0.000000E+00
         3  0.000000E+00  0.000000E+00  0.000000E+00
         4  0.000000E+00  0.000000E+00  0.000000E+00
         5 -1.990761E-07  9.722732E-03  9.014523E-04
         6  1.990761E-07  9.722732E-03  9.014523E-04
         7 -1.990761E-07  9.722732E-03 -9.014523E-04
         8  1.990761E-07  9.722732E-03 -9.014523E-04
         9  0.000000E+00  0.000000E+00  0.000000E+00
        10  0.000000E+00  0.000000E+00  0.000000E+00
        11  0.000000E+00  0.000000E+00  0.000000E+00
        12  0.000000E+00  0.000000E+00  0.000000E+00
        13  0.000000E+00  0.000000E+00  0.000000E+00
        14  0.000000E+00  0.000000E+00  0.000000E+00
        15  0.000000E+00  0.000000E+00  0.000000E+00
        16  0.000000E+00  0.000000E+00  0.000000E+00
        17  0.000000E+00  0.000000E+00  0.000000E+00
        18  0.000000E+00  0.000000E+00  0.000000E+00
        19  0.000000E+00  0.000000E+00  0.000000E+00
        20  0.000000E+00  0.000000E+00  0.000000E+00
        21 -1.041896E-07  9.737008E-03  9.102769E-04
        22  4.300813E-15  9.760898E-03  9.180049E-04
        23  1.041896E-07  9.737008E-03  9.102769E-04
        24  9.480117E-07  9.726841E-03  4.516608E-04
        25  3.404461E-15  9.728723E-03 -3.184098E-16
        26 -9.480117E-07  9.726841E-03 -4.516608E-04
        27 -1.041896E-07  9.737008E-03 -9.102769E-04
        28  2.476991E-15  9.760898E-03 -9.180049E-04
        29  1.041896E-07  9.737008E-03 -9.102769E-04
        30  9.480117E-07  9.726841E-03 -4.516608E-04
        31  3.391901E-15  9.728723E-03  2.739643E-16
        32 -9.480117E-07  9.726841E-03  4.516608E-04
        33 -3.430157E-05  5.977949E-05  1.028795E-04
        34 -2.500147E-05  2.132903E-04  2.060551E-04
        35 -2.824474E-05  4.800251E-04  3.029409E-04
        36 -2.492286E-05  8.313964E-04  3.924843E-04
        37 -2.369867E-05  1.274374E-03  4.741283E-04
        38 -2.119429E-05  1.791805E-03  5.492109E-04
        39 -1.933903E-05  2.383215E-03  6.170347E-04
        40 -1.706703E-05  3.037007E-03  6.777865E-04
        41 -1.503478E-05  3.749542E-03  7.313612E-04
        42 -1.275388E-05  4.510285E-03  7.777378E-04
        43 -1.076296E-05  5.316171E-03  8.170454E-04
        44 -8.369003E-06  6.154714E-03  8.489591E-04
        45 -6.777353E-06  7.025490E-03  8.743913E-04
        46 -3.316506E-06  7.910557E-03  8.923004E-04
        47 -3.266067E-06  8.823177E-03  9.020253E-04
        48  3.266067E-06  8.823177E-03  9.020253E-04
        49  3.316506E-06  7.910557E-03  8.923004E-04
        50  6.777353E-06  7.025490E-03  8.743913E-04
        51  8.369003E-06  6.154714E-03  8.489591E-04
        52  1.076296E-05  5.316171E-03  8.170454E-04
        53  1.275388E-05  4.510285E-03  7.777378E-04
        54  1.503478E-05  3.749542E-03  7.313612E-04
        55  1.706703E-05  3.037007E-03  6.777865E-04
        56  1.933903E-05  2.383215E-03  6.170347E-04
        57  2.119429E-05  1.791805E-03  5.492109E-04
        58  2.369867E-05  1.274374E-03  4.741283E-04
        59  2.492286E-05  8.313964E-04  3.924843E-04
        60  2.824474E-05  4.800251E-04  3.029409E-04
        61  2.500147E-05  2.132903E-04  2.060551E-04
        62  3.430157E-05  5.977949E-05  1.028795E-04
        63  3.430157E-05  5.977949E-05 -1.028795E-04
        64  2.500147E-05  2.132903E-04 -2.060551E-04
        65  2.824474E-05  4.800251E-04 -3.029409E-04
        66  2.492286E-05  8.313964E-04 -3.924843E-04
        67  2.369867E-05  1.274374E-03 -4.741283E-04
        68  2.119429E-05  1.791805E-03 -5.492109E-04
        69  1.933903E-05  2.383215E-03 -6.170347E-04
        70  1.706703E-05  3.037007E-03 -6.777865E-04
        71  1.503478E-05  3.749542E-03 -7.313612E-04
        72  1.275388E-05  4.510285E-03 -7.777378E-04
        73  1.076296E-05  5.316171E-03 -8.170454E-04
        74  8.369003E-06  6.154714E-03 -8.489591E-04
        75  6.777353E-06  7.025490E-03 -8.743913E-04
        76  3.316506E-06  7.910557E-03 -8.923004E-04
        77  3.266067E-06  8.823177E-03 -9.020253E-04
        78 -3.430157E-05  5.977949E-05 -1.028795E-04
        79 -2.500147E-05  2.132903E-04 -2.060551E-04
        80 -2.824474E-05  4.800251E-04 -3.029409E-04
        81 -2.492286E-05  8.313964E-04 -3.924843E-04
        82 -2.369867E-05  1.274374E-03 -4.741283E-04
        83 -2.119429E-05  1.791805E-03 -5.492109E-04
        84 -1.933903E-05  2.383215E-03 -6.170347E-04
        85 -1.706703E-05  3.037007E-03 -6.777865E-04
        86 -1.503478E-05  3.749542E-03 -7.313612E-04
        87 -1.275388E-05  4.510285E-03 -7.777378E-04
        88 -1.076296E-05  5.316171E-03 -8.170454E-04
        89 -8.369003E-06  6.154714E-03 -8.489591E-04
        90 -6.777353E-06  7.025490E-03 -8.743913E-04
        91 -3.316506E-06  7.910557E-03 -8.923004E-04
        92 -3.266067E-06  8.823177E-03 -9.020253E-04
        93  0.000000E+00  0.000000E+00  0.000000E+00
        94  0.000000E+00  0.000000E+00  0.000000E+00
        95  0.000000E+00  0.000000E+00  0.000000E+00
        96  0.000000E+00  0.000000E+00  0.000000E+00
        97  0.000000E+00  0.000000E+00  0.000000E+00
        98  3.849454E-15  9.740464E-03  4.518133E-04
        99  3.397296E-15  9.728950E-03  1.269433E-16
       100  3.401617E-15  9.724403E-03 -2.188564E-17
       101  3.398103E-15  9.728950E-03 -1.712870E-16
       102  2.939253E-15  9.740464E-03 -4.518133E-04
       103  8.982135E-17  7.447663E-05  9.991287E-05
       104  1.237729E-05  2.254017E-04  2.073879E-04
       105  2.445554E-16  2.281497E-04  2.088935E-04
       106 -1.237729E-05  2.254017E-04  2.073879E-04
       107  4.402657E-16  4.934085E-04  3.030132E-04
       108  1.246314E-05  8.411354E-04  3.932295E-04
       109  6.783011E-16  8.449848E-04  3.933593E-04
       110 -1.246314E-05  8.411354E-04  3.932295E-04
       111  9.428493E-16  1.285834E-03  4.745011E-04
       112  1.058999E-05  1.800214E-03  5.497516E-04
       113  1.236424E-15  1.803119E-03  5.497924E-04
       114 -1.058999E-05  1.800214E-03  5.497516E-04
       115  1.542522E-15  2.392558E-03  6.174663E-04
       116  8.535299E-06  3.043825E-03  6.783664E-04
       117  1.862266E-15  3.046434E-03  6.784056E-04
       118 -8.535299E-06  3.043825E-03  6.783664E-04
       119  2.164436E-15  3.756526E-03  7.317048E-04
       120  6.371766E-06  4.516063E-03  7.782973E-04
       121  2.473553E-15  4.518443E-03  7.783162E-04
       122 -6.371766E-06  4.516063E-03  7.782973E-04
       123  2.783459E-15  5.320289E-03  8.175226E-04
       124  4.182687E-06  6.159846E-03  8.499513E-04
       125  3.093467E-15  6.163481E-03  8.503917E-04
       126 -4.182687E-06  6.159846E-03  8.499513E-04
       127  3.398981E-15  7.025963E-03  8.740652E-04
       128  1.723801E-06  7.918851E-03  8.924202E-04
       129  3.695178E-15  7.923391E-03  8.921749E-04
       130 -1.723801E-06  7.918851E-03  8.924202E-04
       131  4.019886E-15  8.816451E-03  9.046866E-04
       132  3.944902E-17  3.867549E-05 -5.018366E-17
       133 -1.261597E-05  2.048158E-04  1.021134E-04
       134  1.143528E-16  2.061261E-04 -1.017727E-16
       135  1.261597E-05  2.048158E-04 -1.021134E-04
       136  2.399717E-16  4.635636E-04 -1.433315E-16
       137 -1.243181E-05  8.238857E-04  1.949790E-04
       138  3.981444E-16  8.221938E-04 -1.790560E-16
       139  1.243181E-05  8.238857E-04 -1.949790E-04
       140  5.904246E-16  1.261543E-03 -2.075791E-16
       141 -1.060741E-05  1.784481E-03  2.734999E-04
       142  8.020521E-16  1.782674E-03 -2.284846E-16
       143  1.060741E-05  1.784481E-03 -2.734999E-04
       144  1.034970E-15  2.373036E-03 -2.440425E-16
       145 -8.521105E-06  3.031110E-03  3.377447E-04
       146  1.273603E-15  3.029450E-03 -2.523818E-16
       147  8.521105E-06  3.031110E-03 -3.377447E-04
       148  1.513040E-15  3.741600E-03 -2.534166E-16
       149 -6.398276E-06  4.506124E-03  3.876921E-04
       150  1.753389E-15  4.505214E-03 -2.622938E-16
       151  6.398276E-06  4.506124E-03 -3.876921E-04
       152  2.000048E-15  5.309898E-03 -2.766545E-16
       153 -4.087605E-06  6.152595E-03  4.234928E-04
       154  2.268040E-15  6.152497E-03 -2.837764E-16
       155  4.087605E-06  6.152595E-03 -4.234928E-04
       156  2.529973E-15  7.021301E-03 -3.018656E-16
       157 -1.839534E-06  7.911684E-03  4.444984E-04
       158  2.808520E-15  7.914366E-03 -3.052300E-16
       159  1.839534E-06  7.911684E-03 -4.444984E-04
       160  3.102907E-15  8.817158E-03 -3.187706E-16
       161 -4.597017E-17  7.447663E-05 -9.991287E-05
       162  1.237729E-05  2.254017E-04 -2.073879E-04
       163 -3.449033E-17  2.281497E-04 -2.088935E-04
       164 -1.237729E-05  2.254017E-04 -2.073879E-04
       165  1.288507E-17  4.934085E-04 -3.030132E-04
       166  1.246314E-05  8.411354E-04 -3.932295E-04
       167  1.021488E-16  8.449848E-04 -3.933593E-04
       168 -1.246314E-05  8.411354E-04 -3.932295E-04
       169  2.210858E-16  1.285834E-03 -4.745011E-04
       170  1.058999E-05  1.800214E-03 -5.497516E-04
       171  3.644546E-16  1.803119E-03 -5.497924E-04
       172 -1.058999E-05  1.800214E-03 -5.497516E-04
       173  5.223990E-16  2.392558E-03 -6.174663E-04
       174  8.535299E-06  3.043825E-03 -6.783664E-04
       175  6.900693E-16  3.046434E-03 -6.784056E-04
       176 -8.535299E-06  3.043825E-03 -6.783664E-04
       177  8.556422E-16  3.756526E-03 -7.317048E-04
       178  6.371766E-06  4.516063E-03 -7.782973E-04
       179  1.026089E-15  4.518443E-03 -7.783162E-04
       180 -6.371766E-06  4.516063E-03 -7.782973E-04
       181  1.217776E-15  5.320289E-03 -8.175226E-04
       182  4.182687E-06  6.159846E-03 -8.499513E-04
       183  1.426810E-15  6.163481E-03 -8.503917E-04
       184 -4.182687E-06  6.159846E-03 -8.499513E-04
       185  1.652822E-15  7.025963E-03 -8.740652E-04
       186  1.723801E-06  7.918851E-03 -8.924202E-04
       187  1.891957E-15  7.923391E-03 -8.921749E-04
       188 -1.723801E-06  7.918851E-03 -8.924202E-04
       189  2.182445E-15  8.816451E-03 -9.046866E-04
       190  3.802075E-17  3.867549E-05  4.671394E-17
       191 -1.261597E-05  2.048158E-04 -1.021134E-04
       192  1.133701E-16  2.061261E-04  9.462374E-17
       193  1.261597E-05  2.048158E-04  1.021134E-04
       194  2.383845E-16  4.635636E-04  1.316365E-16
       195 -1.243181E-05  8.238857E-04 -1.949790E-04
       196  3.958809E-16  8.221938E-04  1.642857E-16
       197  1.243181E-05  8.238857E-04  1.949790E-04
       198  5.883830E-16  1.261543E-03  1.908354E-16
       199 -1.060741E-05  1.784481E-03 -2.734999E-04
       200  8.015269E-16  1.782674E-03  2.091595E-16
       201  1.060741E-05  1.784481E-03  2.734999E-04
       202  1.035115E-15  2.373036E-03  2.184466E-16
       203 -8.521105E-06  3.031110E-03 -3.377447E-04
       204  1.271272E-15  3.029450E-03  2.230201E-16
       205  8.521105E-06  3.031110E-03  3.377447E-04
       206  1.512076E-15  3.741600E-03  2.264443E-16
       207 -6.398276E-06  4.506124E-03 -3.876921E-04
       208  1.743627E-15  4.505214E-03  2.271145E-16
       209  6.398276E-06  4.506124E-03  3.876921E-04
       210  2.003698E-15  5.309898E-03  2.323377E-16
       211 -4.087605E-06  6.152595E-03 -4.234928E-04
       212  2.253873E-15  6.152497E-03  2.417364E-16
       213  4.087605E-06  6.152595E-03  4.234928E-04
       214  2.530779E-15  7.021301E-03  2.446966E-16
       215 -1.839534E-06  7.911684E-03 -4.444984E-04
       216  2.797679E-15  7.914366E-03  2.585041E-16
       217  1.839534E-06  7.911684E-03  4.444984E-04
       218  3.102623E-15  8.817158E-03  2.699048E-16
       219  2.865930E-17  5.330800E-05 -1.767480E-18
       220  1.798336E-16  2.189074E-04  1.033243E-04
       221  1.097755E-16  2.177324E-04  4.433709E-17
       222  1.107462E-16  2.197465E-04 -3.614425E-18
       223  1.101787E-16  2.177324E-04 -5.171644E-17
       224  4.035350E-17  2.189074E-04 -1.033243E-04
       225  2.320531E-16  4.775096E-04 -5.854692E-18
       226  5.374797E-16  8.368896E-04  1.957011E-04
       227  3.940498E-16  8.312882E-04  7.785673E-17
       228  3.943855E-16  8.345464E-04 -7.345470E-18
       229  3.955695E-16  8.312882E-04 -9.204669E-17
       230  2.492547E-16  8.368896E-04 -1.957011E-04
       231  5.854082E-16  1.273523E-03 -8.300502E-18
       232  1.019596E-15  1.795247E-03  2.740150E-04
       233  8.007104E-16  1.790545E-03  9.810844E-17
       234  8.020487E-16  1.792913E-03 -1.068369E-17
       235  8.012525E-16  1.790545E-03 -1.189942E-16
       236  5.836591E-16  1.795247E-03 -2.740150E-04
       237  1.033475E-15  2.382935E-03 -1.199069E-17
       238  1.566022E-15  3.039746E-03  3.382421E-04
       239  1.272664E-15  3.035509E-03  1.050335E-16
       240  1.273240E-15  3.037301E-03 -1.306464E-17
       241  1.272528E-15  3.035509E-03 -1.320423E-16
       242  9.808881E-16  3.039746E-03 -3.382421E-04
       243  1.510863E-15  3.749550E-03 -1.554181E-17
       244  2.114962E-15  4.512706E-03  3.883560E-04
       245  1.746053E-15  4.509255E-03  1.054793E-16
       246  1.750553E-15  4.510164E-03 -1.772671E-17
       247  1.753155E-15  4.509255E-03 -1.404729E-16
       248  1.390227E-15  4.512706E-03 -3.883560E-04
       249  1.999089E-15  5.316303E-03 -1.926492E-17
       250  2.679874E-15  6.157492E-03  4.238194E-04
       251  2.260562E-15  6.154391E-03  1.090244E-16
       252  2.269994E-15  6.153828E-03 -2.401465E-17
       253  2.268652E-15  6.154391E-03 -1.537981E-16
       254  1.846349E-15  6.157492E-03 -4.238194E-04
       255  2.526882E-15  7.026436E-03 -2.330781E-17
       256  3.254745E-15  7.916900E-03  4.467371E-04
       257  2.802800E-15  7.912360E-03  1.182033E-16
       258  2.808241E-15  7.910546E-03 -2.200930E-17
       259  2.808870E-15  7.912360E-03 -1.626371E-16
       260  2.355616E-15  7.916900E-03 -4.467371E-04
       261  3.094421E-15  8.823287E-03 -2.106028E-17

 stresses (elem, integ.pnt.,sxx,syy,szz,sxy,sxz,syz) for set EALL and time  0.1000000E+01

         1   1  6.783199E+00  6.826476E+00  3.775464E+01 -8.535736E-01  3.478888E+00  1.188651E+00
         1   2  6.430033E+00  6.449264E+00  3.682159E+01  2.474508E-01  7.149174E-01  2.867297E+00
         1   3  1.587727E-01 -1.953001E+00  8.385846E+00 -8.526112E-01  9.322767E-01 -8.773507E-01
         1   4  8.094143E-02 -2.005394E+00  8.143152E+00  2.484806E-01  1.890506E-01  8.214027E-01
         1   5 -1.896301E+00 -1.610719E+00  3.344190E+01 -2.995406E-01 -1.398726E+00 -3.123656E-03
         1   6 -1.112908E+00 -1.105580E+00  3.505155E+01  1.062634E-01 -4.300712E-01 -9.377055E-02
         1   7 -9.209518E-01 -1.271581E+00  8.486681E+00 -3.902059E-01 -3.841586E-01  2.092311E+00
         1   8 -7.324175E-01 -1.176623E+00  8.887128E+00  1.584952E-02 -1.272308E-01  2.004583E+00
         2   1  6.430033E+00  6.449264E+00  3.682159E+01 -2.474508E-01 -7.149174E-01  2.867297E+00
         2   2  6.783199E+00  6.826476E+00  3.775464E+01  8.535736E-01 -3.478888E+00  1.188651E+00
         2   3  8.094143E-02 -2.005394E+00  8.143152E+00 -2.484806E-01 -1.890506E-01  8.214027E-01
         2   4  1.587727E-01 -1.953001E+00  8.385846E+00  8.526112E-01 -9.322767E-01 -8.773507E-01
         2   5 -1.112908E+00 -1.105580E+00  3.505155E+01 -1.062634E-01  4.300712E-01 -9.377055E-02
         2   6 -1.896301E+00 -1.610719E+00  3.344190E+01  2.995406E-01  1.398726E+00 -3.123656E-03
         2   7 -7.324175E-01 -1.176623E+00  8.887128E+00 -1.584952E-02  1.272308E-01  2.004583E+00
         2   8 -9.209518E-01 -1.271581E+00  8.486681E+00  3.902059E-01  3.841586E-01  2.092311E+00
         3   1 -1.587727E-01  1.953001E+00 -8.385846E+00 -8.526112E-01 -9.322767E-01 -8.773507E-01
         3   2 -8.094143E-02  2.005394E+00 -8.143152E+00  2.484806E-01 -1.890506E-01  8.214027E-01
         3   3 -6.783199E+00 -6.826476E+00 -3.775464E+01 -8.535736E-01 -3.478888E+00  1.188651E+00
         3   4 -6.430033E+00 -6.449264E+00 -3.682159E+01  2.474508E-01 -7.149174E-01  2.867297E+00
         3   5  9.209518E-01  1.271581E+00 -8.486681E+00 -3.902059E-01  3.841586E-01  2.092311E+00
         3   6  7.324175E-01  1.176623E+00 -8.887128E+00  1.584952E-02  1.272308E-01  2.004583E+00
         3   7  1.896301E+00  1.610719E+00 -3.344190E+01 -2.995406E-01  1.398726E+00 -3.123656E-03
         3   8  1.112908E+00  1.105580E+00 -3.505155E+01  1.062634E-01  4.300712E-01 -9.377055E-02
         4   1 -8.094143E-02  2.005394E+00 -8.143152E+00 -2.484806E-01  1.890506E-01  8.214027E-01
         4   2 -1.587727E-01  1.953001E+00 -8.385846E+00  8.526112E-01  9.322767E-01 -8.773507E-01
         4   3 -6.430033E+00 -6.449264E+00 -3.682159E+01 -2.474508E-01  7.149174E-01  2.867297E+00
         4   4 -6.783199E+00 -6.826476E+00 -3.775464E+01  8.535736E-01  3.478888E+00  1.188651E+00
         4   5  7.324175E-01  1.176623E+00 -8.887128E+00 -1.584952E-02 -1.272308E-01  2.004583E+00
         4   6  9.209518E-01  1.271581E+00 -8.486681E+00  3.902059E-01 -3.841586E-01  2.092311E+00
         4   7  1.112908E+00  1.105580E+00 -3.505155E+01 -1.062634E-01 -4.300712E-01 -9.377055E-02
         4   8  1.896301E+00  1.610719E+00 -3.344190E+01  2.995406E-01 -1.398726E+00 -3.123656E-03
         5   1  5.755554E-01 -1.411276E-03  3.224945E+01  4.430177E-01  5.211281E-01  1.179321E+00
         5   2  4.217764E-01 -3.238534E-01  3.156462E+01 -2.734406E-01  2.515560E-01  9.386732E-01
         5   3  9.892804E-01  2.011870E+00  9.470317E+00  4.078817E-01  1.269204E-01  9.828893E-01
         5   4  1.006004E+00  2.038203E+00  9.367183E+00 -3.085946E-01  5.798537E-02  8.991162E-01
         5   5 -3.972019E-01 -5.731291E-01  2.926621E+01 -7.128117E-02 -2.874105E-01  2.296231E-01
         5   6 -2.109488E-01 -4.249354E-01  2.961271E+01 -1.292778E-02 -1.332488E-01  2.550841E-01
         5   7 -2.946791E-01 -5.729992E-01  7.634465E+00 -7.458678E-02 -6.729117E-02  1.839691E+00
         5   8 -2.296574E-01 -5.204574E-01  7.764859E+00 -1.717191E-02 -2.268709E-02  1.675602E+00
         6   1  4.217764E-01 -3.238534E-01  3.156462E+01  2.734406E-01 -2.515560E-01  9.386732E-01
         6   2  5.755554E-01 -1.411276E-03  3.224945E+01 -4.430177E-01 -5.211281E-01  1.179321E+00
         6   3  1.006004E+00  2.038203E+00  9.367183E+00  3.085946E-01 -5.798537E-02  8.991162E-01
         6   4  9.892804E-01  2.011870E+00  9.470317E+00 -4.078817E-01 -1.269204E-01  9.828893E-01
         6   5 -2.109488E-01 -4.249354E-01  2.961271E+01  1.292778E-02  1.332488E-01  2.550841E-01
         6   6 -3.972019E-01 -5.731291E-01  2.926621E+01  7.128117E-02  2.874105E-01  2.296231E-01
         6   7 -2.296574E-01 -5.204574E-01  7.764859E+00  1.717191E-02  2.268709E-02  1.675602E+00
         6   8 -2.946791E-01 -5.729992E-01  7.634465E+00  7.458678E-02  6.729117E-02  1.839691E+00
         7   1 -9.892804E-01 -2.011870E+00 -9.470317E+00  4.078817E-01 -1.269204E-01  9.828893E-01
         7   2 -1.006004E+00 -2.038203E+00 -9.367183E+00 -3.085946E-01 -5.798537E-02  8.991162E-01
         7   3 -5.755554E-01  1.411276E-03 -3.224945E+01  4.430177E-01 -5.211281E-01  1.179321E+00
         7   4 -4.217764E-01  3.238534E-01 -3.156462E+01 -2.734406E-01 -2.515560E-01  9.386732E-01
         7   5  2.946791E-01  5.729992E-01 -7.634465E+00 -7.458678E-02  6.729117E-02  1.839691E+00
         7   6  2.296574E-01  5.204574E-01 -7.764859E+00 -1.717191E-02  2.268709E-02  1.675602E+00
         7   7  3.972019E-01  5.731291E-01 -2.926621E+01 -7.128117E-02  2.874105E-01  2.296231E-01
         7   8  2.109488E-01  4.249354E-01 -2.961271E+01 -1.292778E-02  1.332488E-01  2.550841E-01
         8   1 -1.006004E+00 -2.038203E+00 -9.367183E+00  3.085946E-01  5.798537E-02  8.991162E-01
         8   2 -9.892804E-01 -2.011870E+00 -9.470317E+00 -4.078817E-01  1.269204E-01  9.828893E-01
         8   3 -4.217764E-01  3.238534E-01 -3.156462E+01  2.734406E-01  2.515560E-01  9.386732E-01
         8   4 -5.755554E-01  1.411276E-03 -3.224945E+01 -4.430177E-01  5.211281E-01  1.179321E+00
         8   5  2.296574E-01  5.204574E-01 -7.764859E+00  1.717191E-02 -2.268709E-02  1.675602E+00
         8   6  2.946791E-01  5.729992E-01 -7.634465E+00  7.458678E-02 -6.729117E-02  1.839691E+00
         8   7  2.109488E-01  4.249354E-01 -2.961271E+01  1.292778E-02 -1.332488E-01  2.550841E-01
         8   8  3.972019E-01  5.731291E-01 -2.926621E+01  7.128117E-02 -2.874105E-01  2.296231E-01
         9   1  3.071921E-01  6.500087E-01  2.747422E+01 -4.332686E-02  7.785170E-02  8.250061E-01
         9   2  2.391751E-01  5.763891E-01  2.732029E+01  8.850981E-02 -1.448406E-02  6.553720E-01
         9   3  6.613070E-02  1.138533E-01  7.353595E+00 -4.334476E-02  4.353270E-02  1.348934E+00
         9   4  2.723068E-02  4.862623E-02  7.288933E+00  8.849676E-02  1.788355E-02  1.170688E+00
         9   5 -9.883457E-02 -2.128774E-01  2.464136E+01 -1.370540E-02 -1.058205E-01  4.752737E-01
         9   6 -6.094272E-02 -1.802464E-01  2.470809E+01 -7.046087E-03 -6.981181E-02  4.512071E-01
         9   7 -9.427753E-02 -2.256837E-01  6.546549E+00 -1.543541E-02 -8.422908E-03  1.649792E+00
         9   8 -8.497005E-02 -2.161726E-01  6.560842E+00 -5.273469E-03  3.177416E-04  1.423727E+00
        10   1  2.391751E-01  5.763891E-01  2.732029E+01 -8.850981E-02  1.448406E-02  6.553720E-01
        10   2  3.071921E-01  6.500087E-01  2.747422E+01  4.332686E-02 -7.785170E-02  8.250061E-01
        10   3  2.723068E-02  4.862623E-02  7.288933E+00 -8.849676E-02 -1.788355E-02  1.170688E+00
        10   4  6.613070E-02  1.138533E-01  7.353595E+00  4.334476E-02 -4.353270E-02  1.348934E+00
        10   5 -6.094272E-02 -1.802464E-01  2.470809E+01  7.046087E-03  6.981181E-02  4.512071E-01
        10   6 -9.883457E-02 -2.128774E-01  2.464136E+01  1.370540E-02  1.058205E-01  4.752737E-01
        10   7 -8.497005E-02 -2.161726E-01  6.560842E+00  5.273469E-03 -3.177416E-04  1.423727E+00
        10   8 -9.427753E-02 -2.256837E-01  6.546549E+00  1.543541E-02  8.422908E-03  1.649792E+00
        11   1 -6.613070E-02 -1.138533E-01 -7.353595E+00 -4.334476E-02 -4.353270E-02  1.348934E+00
        11   2 -2.723068E-02 -4.862623E-02 -7.288933E+00  8.849676E-02 -1.788355E-02  1.170688E+00
        11   3 -3.071921E-01 -6.500087E-01 -2.747422E+01 -4.332686E-02 -7.785170E-02  8.250061E-01
        11   4 -2.391751E-01 -5.763891E-01 -2.732029E+01  8.850981E-02  1.448406E-02  6.553720E-01
        11   5  9.427753E-02  2.256837E-01 -6.546549E+00 -1.543541E-02  8.422908E-03  1.649792E+00
        11   6  8.497005E-02  2.161726E-01 -6.560842E+00 -5.273469E-03 -3.177416E-04  1.423727E+00
        11   7  9.883457E-02  2.128774E-01 -2.464136E+01 -1.370540E-02  1.058205E-01  4.752737E-01
        11   8  6.094272E-02  1.802464E-01 -2.470809E+01 -7.046087E-03  6.981181E-02  4.512071E-01
        12   1 -2.723068E-02 -4.862623E-02 -7.288933E+00 -8.849676E-02  1.788355E-02  1.170688E+00
        12   2 -6.613070E-02 -1.138533E-01 -7.353595E+00  4.334476E-02  4.353270E-02  1.348934E+00
        12   3 -2.391751E-01 -5.763891E-01 -2.732029E+01 -8.850981E-02 -1.448406E-02  6.553720E-01
        12   4 -3.071921E-01 -6.500087E-01 -2.747422E+01  4.332686E-02  7.785170E-02  8.250061E-01
        12   5  8.497005E-02  2.161726E-01 -6.560842E+00  5.273469E-03  3.177416E-04  1.423727E+00
        12   6  9.427753E-02  2.256837E-01 -6.546549E+00  1.543541E-02 -8.422908E-03  1.649792E+00
        12   7  6.094272E-02  1.802464E-01 -2.470809E+01  7.046087E-03 -6.981181E-02  4.512071E-01
        12   8  9.883457E-02  2.128774E-01 -2.464136E+01  1.370540E-02 -1.058205E-01  4.752737E-01
        13   1  3.184891E-02  5.911142E-02  2.265752E+01  2.567015E-02 -2.485371E-02  7.205665E-01
        13   2  2.914610E-02  6.028576E-02  2.262047E+01 -1.948064E-02 -3.965776E-02  5.622325E-01
        13   3  9.260693E-02  2.188884E-01  6.152000E+00  3.053066E-02  9.715737E-03  1.432631E+00
        13   4  1.017602E-01  2.439115E-01  6.150287E+00 -1.462142E-02  6.265137E-03  1.284571E+00
        13   5 -2.456677E-02 -5.615353E-02  1.992831E+01  1.333897E-03 -6.924038E-02  5.465472E-01
        13   6 -3.393864E-02 -1.075927E-01  1.994797E+01  1.314937E-02 -5.557797E-02  5.173529E-01
        13   7 -2.949012E-02 -6.849979E-02  5.311665E+00 -9.371929E-03 -3.838570E-03  1.590068E+00
        13   8 -5.361428E-02 -1.310522E-01  5.293658E+00 -1.062844E-02  3.383968E-04  1.346032E+00
        14   1  2.914610E-02  6.028576E-02  2.262047E+01  1.948064E-02  3.965776E-02  5.622325E-01
        14   2  3.184891E-02  5.911142E-02  2.265752E+01 -2.567015E-02  2.485371E-02  7.205665E-01
        14   3  1.017602E-01  2.439115E-01  6.150287E+00  1.462142E-02 -6.265137E-03  1.284571E+00
        14   4  9.260693E-02  2.188884E-01  6.152000E+00 -3.053066E-02 -9.715737E-03  1.432631E+00
        14   5 -3.393864E-02 -1.075927E-01  1.994797E+01 -1.314937E-02  5.557797E-02  5.173529E-01
        14   6 -2.456677E-02 -5.615353E-02  1.992831E+01 -1.333897E-03  6.924038E-02  5.465472E-01
        14   7 -5.361428E-02 -1.310522E-01  5.293658E+00  1.062844E-02 -3.383968E-04  1.346032E+00
        14   8 -2.949012E-02 -6.849979E-02  5.311665E+00  9.371929E-03  3.838570E-03  1.590068E+00
        15   1 -9.260693E-02 -2.188884E-01 -6.152000E+00  3.053066E-02 -9.715737E-03  1.432631E+00
        15   2 -1.017602E-01 -2.439115E-01 -6.150287E+00 -1.462142E-02 -6.265137E-03  1.284571E+00
        15   3 -3.184891E-02 -5.911142E-02 -2.265752E+01  2.567015E-02  2.485371E-02  7.205665E-01
        15   4 -2.914610E-02 -6.028576E-02 -2.262047E+01 -1.948064E-02  3.965776E-02  5.622325E-01
        15   5  2.949012E-02  6.849979E-02 -5.311665E+00 -9.371929E-03  3.838570E-03  1.590068E+00
        15   6  5.361428E-02  1.310522E-01 -5.293658E+00 -1.062844E-02 -3.383968E-04  1.346032E+00
        15   7  2.456677E-02  5.615353E-02 -1.992831E+01  1.333897E-03  6.924038E-02  5.465472E-01
        15   8  3.393864E-02  1.075927E-01 -1.994797E+01  1.314937E-02  5.557797E-02  5.173529E-01
        16   1 -1.017602E-01 -2.439115E-01 -6.150287E+00  1.462142E-02  6.265137E-03  1.284571E+00
        16   2 -9.260693E-02 -2.188884E-01 -6.152000E+00 -3.053066E-02  9.715737E-03  1.432631E+00
        16   3 -2.914610E-02 -6.028576E-02 -2.262047E+01  1.948064E-02 -3.965776E-02  5.622325E-01
        16   4 -3.184891E-02 -5.911142E-02 -2.265752E+01 -2.567015E-02 -2.485371E-02  7.205665E-01
        16   5  5.361428E-02  1.310522E-01 -5.293658E+00  1.062844E-02  3.383968E-04  1.346032E+00
        16   6  2.949012E-02  6.849979E-02 -5.311665E+00  9.371929E-03 -3.838570E-03  1.590068E+00
        16   7  3.393864E-02  1.075927E-01 -1.994797E+01 -1.314937E-02 -5.557797E-02  5.173529E-01
        16   8  2.456677E-02  5.615353E-02 -1.992831E+01 -1.333897E-03 -6.924038E-02  5.465472E-01
        17   1  1.621372E-02  4.832437E-02  1.792959E+01 -2.160072E-02 -4.099775E-02  6.649246E-01
        17   2  3.515031E-02  1.284567E-01  1.791417E+01 -1.141528E-02 -5.304483E-02  4.801477E-01
        17   3  6.681033E-03  1.473802E-02  4.806611E+00  9.951950E-03  7.987282E-03  1.486386E+00
        17   4  4.903629E-02  1.146967E-01  4.848264E+00  2.013774E-02  3.991265E-03  1.368542E+00
        17   5 -3.668324E-03 -5.134574E-03  1.519566E+01  5.852231E-02 -6.123179E-02  5.534146E-01
        17   6 -3.768152E-02 -1.509820E-01  1.520924E+01  2.156455E-02 -5.215828E-02  6.307499E-01
        17   7 -4.217512E-04  6.511303E-03  4.075354E+00 -2.945341E-02  1.106781E-02  1.567815E+00
        17   8 -7.580645E-02 -1.957027E-01  4.021224E+00 -1.762585E-02  1.273104E-02  1.248021E+00
        18   1  3.515031E-02  1.284567E-01  1.791417E+01  1.141528E-02  5.304483E-02  4.801477E-01
        18   2  1.621372E-02  4.832437E-02  1.792959E+01  2.160072E-02  4.099775E-02  6.649246E-01
        18   3  4.903629E-02  1.146967E-01  4.848264E+00 -2.013774E-02 -3.991265E-03  1.368542E+00
        18   4  6.681033E-03  1.473802E-02  4.806611E+00 -9.951950E-03 -7.987282E-03  1.486386E+00
        18   5 -3.768152E-02 -1.509820E-01  1.520924E+01 -2.156455E-02  5.215828E-02  6.307499E-01
        18   6 -3.668324E-03 -5.134574E-03  1.519566E+01 -5.852231E-02  6.123179E-02  5.534146E-01
        18   7 -7.580645E-02 -1.957027E-01  4.021224E+00  1.762585E-02 -1.273104E-02  1.248021E+00
        18   8 -4.217512E-04  6.511303E-03  4.075354E+00  2.945341E-02 -1.106781E-02  1.567815E+00
        19   1 -6.681033E-03 -1.473802E-02 -4.806611E+00  9.951950E-03 -7.987282E-03  1.486386E+00
        19   2 -4.903629E-02 -1.146967E-01 -4.848264E+00  2.013774E-02 -3.991265E-03  1.368542E+00
        19   3 -1.621372E-02 -4.832437E-02 -1.792959E+01 -2.160072E-02  4.099775E-02  6.649246E-01
        19   4 -3.515031E-02 -1.284567E-01 -1.791417E+01 -1.141528E-02  5.304483E-02  4.801477E-01
        19   5  4.217512E-04 -6.511303E-03 -4.075354E+00 -2.945341E-02 -1.106781E-02  1.567815E+00
        19   6  7.580645E-02  1.957027E-01 -4.021224E+00 -1.762585E-02 -1.273104E-02  1.248021E+00
        19   7  3.668324E-03  5.134574E-03 -1.519566E+01  5.852231E-02  6.123179E-02  5.534146E-01
        19   8  3.768152E-02  1.509820E-01 -1.520924E+01  2.156455E-02  5.215828E-02  6.307499E-01
        20   1 -4.903629E-02 -1.146967E-01 -4.848264E+00 -2.013774E-02  3.991265E-03  1.368542E+00
        20   2 -6.681033E-03 -1.473802E-02 -4.806611E+00 -9.951950E-03  7.987282E-03  1.486386E+00
        20   3 -3.515031E-02 -1.284567E-01 -1.791417E+01  1.141528E-02 -5.304483E-02  4.801477E-01
        20   4 -1.621372E-02 -4.832437E-02 -1.792959E+01  2.160072E-02 -4.099775E-02  6.649246E-01
        20   5  7.580645E-02  1.957027E-01 -4.021224E+00  1.762585E-02  1.273104E-02  1.248021E+00
        20   6  4.217512E-04 -6.511303E-03 -4.075354E+00  2.945341E-02  1.106781E-02  1.567815E+00
        20   7  3.768152E-02  1.509820E-01 -1.520924E+01 -2.156455E-02 -5.215828E-02  6.307499E-01
        20   8  3.668324E-03  5.134574E-03 -1.519566E+01 -5.852231E-02 -6.123179E-02  5.534146E-01
        21   1 -1.693425E-02 -2.899375E-02  1.318786E+01 -6.302227E-02 -4.714377E-02  6.785000E-01