
 displacements (vx,vy,vz) for set NALL and time  0.1000000E+01

         1  0.000000E+00  0.000000E+00  0.000000E+00
         2  0.000000E+00  0.000000E+00  0.000000E+00
         3  0.000000E+00  0.000000E+00  0.000000E+00
         4  0.000000E+00  0.000000E+00  0.000000E+00
         5  0.000000E+00  0.000000E+00  0.000000E+00
         6  0.000000E+00  0.000000E+00  0.000000E+00
         7  0.000000E+00  0.000000E+00  0.000000E+00
         8  0.000000E+00  0.000000E+00  0.000000E+00
         9  0.000000E+00  0.000000E+00  0.000000E+00
        10  0.000000E+00  0.000000E+00  0.000000E+00
        11  0.000000E+00  0.000000E+00  0.000000E+00
        12  0.000000E+00  0.000000E+00  0.000000E+00
        13  0.000000E+00  0.000000E+00  0.000000E+00
        14  0.000000E+00  0.000000E+00  0.000000E+00
        15  0.000000E+00  0.000000E+00  0.000000E+00
        16  0.000000E+00  0.000000E+00  0.000000E+00
        17  0.000000E+00  0.000000E+00  0.000000E+00
        18  0.000000E+00  0.000000E+00  0.000000E+00
        19  0.000000E+00  0.000000E+00  0.000000E+00
        20  0.000000E+00  0.000000E+00  0.000000E+00
        21  0.000000E+00  0.000000E+00  0.000000E+00
        22  0.000000E+00  0.000000E+00  0.000000E+00
        23  0.000000E+00  0.000000E+00  0.000000E+00
        24  0.000000E+00  0.000000E+00  0.000000E+00
        25  0.000000E+00  0.000000E+00  0.000000E+00
        26  0.000000E+00  0.000000E+00  0.000000E+00
        27  0.000000E+00  0.000000E+00  0.000000E+00
        28  0.000000E+00  0.000000E+00  0.000000E+00
        29  0.000000E+00  0.000000E+00  0.000000E+00
        30  0.000000E+00  0.000000E+00  0.000000E+00
        31  0.000000E+00  0.000000E+00  0.000000E+00
        32  0.000000E+00  0.000000E+00  0.000000E+00
        33  1.507015E-04 -1.507015E-04  1.130600E-05
        34  1.130171E-04 -1.130171E-04  2.779326E-05
        35  1.386165E-04 -1.386165E-04  1.862503E-05
        36  1.313211E-04 -1.313211E-04  1.827362E-05
        37  1.363853E-04 -1.363853E-04  1.203651E-05
        38  1.347074E-04 -1.347074E-04  8.402116E-06
        39  1.360519E-04 -1.360519E-04  4.106084E-06
        40  1.352358E-04 -1.352358E-04  2.080921E-19
        41  1.360519E-04 -1.360519E-04 -4.106084E-06
        42  1.347074E-04 -1.347074E-04 -8.402116E-06
        43  1.363853E-04 -1.363853E-04 -1.203651E-05
        44  1.313211E-04 -1.313211E-04 -1.827362E-05
        45  1.386165E-04 -1.386165E-04 -1.862503E-05
        46  1.130171E-04 -1.130171E-04 -2.779326E-05
        47  1.507015E-04 -1.507015E-04 -1.130600E-05
        48 -1.507015E-04 -1.507015E-04 -1.130600E-05
        49 -1.130171E-04 -1.130171E-04 -2.779326E-05
        50 -1.386165E-04 -1.386165E-04 -1.862503E-05
        51 -1.313211E-04 -1.313211E-04 -1.827362E-05
        52 -1.363853E-04 -1.363853E-04 -1.203651E-05
        53 -1.347074E-04 -1.347074E-04 -8.402116E-06
        54 -1.360519E-04 -1.360519E-04 -4.106084E-06
        55 -1.352358E-04 -1.352358E-04  7.687954E-19
        56 -1.360519E-04 -1.360519E-04  4.106084E-06
        57 -1.347074E-04 -1.347074E-04  8.402116E-06
        58 -1.363853E-04 -1.363853E-04  1.203651E-05
        59 -1.313211E-04 -1.313211E-04  1.827362E-05
        60 -1.386165E-04 -1.386165E-04  1.862503E-05
        61 -1.130171E-04 -1.130171E-04  2.779326E-05
        62 -1.507015E-04 -1.507015E-04  1.130600E-05
        63  1.507015E-04  1.507015E-04  1.130600E-05
        64  1.130171E-04  1.130171E-04  2.779326E-05
        65  1.386165E-04  1.386165E-04  1.862503E-05
        66  1.313211E-04  1.313211E-04  1.827362E-05
        67  1.363853E-04  1.363853E-04  1.203651E-05
        68  1.347074E-04  1.347074E-04  8.402116E-06
        69  1.360519E-04  1.360519E-04  4.106084E-06
        70  1.352358E-04  1.352358E-04 -7.453890E-20
        71  1.360519E-04  1.360519E-04 -4.106084E-06
        72  1.347074E-04  1.347074E-04 -8.402116E-06
        73  1.363853E-04  1.363853E-04 -1.203651E-05
        74  1.313211E-04  1.313211E-04 -1.827362E-05
        75  1.386165E-04  1.386165E-04 -1.862503E-05
        76  1.130171E-04  1.130171E-04 -2.779326E-05
        77  1.507015E-04  1.507015E-04 -1.130600E-05
        78 -1.507015E-04  1.507015E-04  1.130600E-05
        79 -1.130171E-04  1.130171E-04  2.779326E-05
        80 -1.386165E-04  1.386165E-04  1.862503E-05
        81 -1.313211E-04  1.313211E-04  1.827362E-05
        82 -1.363853E-04  1.363853E-04  1.203651E-05
        83 -1.347074E-04  1.347074E-04  8.402116E-06
        84 -1.360519E-04  1.360519E-04  4.106084E-06
        85 -1.352358E-04  1.352358E-04  4.127949E-19
        86 -1.360519E-04  1.360519E-04 -4.106084E-06
        87 -1.347074E-04  1.347074E-04 -8.402116E-06
        88 -1.363853E-04  1.363853E-04 -1.203651E-05
        89 -1.313211E-04  1.313211E-04 -1.827362E-05
        90 -1.386165E-04  1.386165E-04 -1.862503E-05
        91 -1.130171E-04  1.130171E-04 -2.779326E-05
        92 -1.507015E-04  1.507015E-04 -1.130600E-05
        93  0.000000E+00  0.000000E+00  0.000000E+00
        94  0.000000E+00  0.000000E+00  0.000000E+00
        95  0.000000E+00  0.000000E+00  0.000000E+00
        96  0.000000E+00  0.000000E+00  0.000000E+00
        97  0.000000E+00  0.000000E+00  0.000000E+00
        98  0.000000E+00  0.000000E+00  0.000000E+00
        99  0.000000E+00  0.000000E+00  0.000000E+00
       100  0.000000E+00  0.000000E+00  0.000000E+00
       101  0.000000E+00  0.000000E+00  0.000000E+00
       102  0.000000E+00  0.000000E+00  0.000000E+00
       103 -1.570953E-20 -1.508359E-04  3.326661E-05
       104 -5.693953E-05 -1.154986E-04  2.418901E-05
       105 -2.458767E-19 -1.184789E-04  1.791541E-05
       106  5.693953E-05 -1.154986E-04  2.418901E-05
       107 -5.271288E-19 -1.361746E-04  2.053311E-05
       108 -6.540194E-05 -1.332116E-04  1.680690E-05
       109 -7.459184E-19 -1.349995E-04  1.563209E-05
       110  6.540194E-05 -1.332116E-04  1.680690E-05
       111 -1.156955E-18 -1.353668E-04  1.266620E-05
       112 -6.740579E-05 -1.354592E-04  8.249767E-06
       113 -1.059744E-18 -1.362537E-04  7.946451E-06
       114  6.740579E-05 -1.354592E-04  8.249767E-06
       115 -9.155261E-19 -1.356085E-04  4.140336E-06
       116 -6.758123E-05 -1.357010E-04  6.630186E-19
       117 -2.627975E-19 -1.361489E-04  5.207449E-19
       118  6.758123E-05 -1.357010E-04  3.539095E-19
       119 -1.805057E-19 -1.356085E-04 -4.140336E-06
       120 -6.740579E-05 -1.354592E-04 -8.249767E-06
       121 -9.826671E-20 -1.362537E-04 -7.946451E-06
       122  6.740579E-05 -1.354592E-04 -8.249767E-06
       123  2.070996E-19 -1.353668E-04 -1.266620E-05
       124 -6.540194E-05 -1.332116E-04 -1.680690E-05
       125  6.911789E-19 -1.349995E-04 -1.563209E-05
       126  6.540194E-05 -1.332116E-04 -1.680690E-05
       127  9.315657E-19 -1.361746E-04 -2.053311E-05
       128 -5.693953E-05 -1.154986E-04 -2.418901E-05
       129  1.269491E-18 -1.184789E-04 -1.791541E-05
       130  5.693953E-05 -1.154986E-04 -2.418901E-05
       131  7.270297E-19 -1.508359E-04 -3.326661E-05
       132  1.508359E-04  5.742210E-19  3.326661E-05
       133  1.154986E-04 -5.693953E-05  2.418901E-05
       134  1.184789E-04  1.192980E-18  1.791541E-05
       135  1.154986E-04  5.693953E-05  2.418901E-05
       136  1.361746E-04  1.904659E-18  2.053311E-05
       137  1.332116E-04 -6.540194E-05  1.680690E-05
       138  1.349995E-04  2.793641E-18  1.563209E-05
       139  1.332116E-04  6.540194E-05  1.680690E-05
       140  1.353668E-04  3.488055E-18  1.266620E-05
       141  1.354592E-04 -6.740579E-05  8.249767E-06
       142  1.362537E-04  4.058982E-18  7.946451E-06
       143  1.354592E-04  6.740579E-05  8.249767E-06
       144  1.356085E-04  4.480888E-18  4.140336E-06
       145  1.357010E-04 -6.758123E-05  9.609082E-20
       146  1.361489E-04  4.954484E-18  3.388132E-21
       147  1.357010E-04  6.758123E-05 -3.494011E-20
       148  1.356085E-04  5.099138E-18 -4.140336E-06
       149  1.354592E-04 -6.740579E-05 -8.249767E-06
       150  1.362537E-04  5.137678E-18 -7.946451E-06
       151  1.354592E-04  6.740579E-05 -8.249767E-06
       152  1.353668E-04  4.554979E-18 -1.266620E-05
       153  1.332116E-04 -6.540194E-05 -1.680690E-05
       154  1.349995E-04  3.719146E-18 -1.563209E-05
       155  1.332116E-04  6.540194E-05 -1.680690E-05
       156  1.361746E-04  2.272695E-18 -2.053311E-05
       157  1.154986E-04 -5.693953E-05 -2.418901E-05
       158  1.184789E-04  9.387003E-19 -1.791541E-05
       159  1.154986E-04  5.693953E-05 -2.418901E-05
       160  1.508359E-04  1.050321E-19 -3.326661E-05
       161 -8.329915E-19  1.508359E-04  3.326661E-05
       162  5.693953E-05  1.154986E-04  2.418901E-05
       163 -1.927847E-18  1.184789E-04  1.791541E-05
       164 -5.693953E-05  1.154986E-04  2.418901E-05
       165 -2.304565E-18  1.361746E-04  2.053311E-05
       166  6.540194E-05  1.332116E-04  1.680690E-05
       167 -2.587451E-18  1.349995E-04  1.563209E-05
       168 -6.540194E-05  1.332116E-04  1.680690E-05
       169 -2.306825E-18  1.353668E-04  1.266620E-05
       170  6.740579E-05  1.354592E-04  8.249767E-06
       171 -1.894823E-18  1.362537E-04  7.946451E-06
       172 -6.740579E-05  1.354592E-04  8.249767E-06
       173 -1.591309E-18  1.356085E-04  4.140336E-06
       174  6.758123E-05  1.357010E-04 -2.938132E-20
       175 -1.150922E-18  1.361489E-04  9.395459E-20
       176 -6.758123E-05  1.357010E-04  2.898441E-19
       177 -1.001579E-18  1.356085E-04 -4.140336E-06
       178  6.740579E-05  1.354592E-04 -8.249767E-06
       179 -8.673617E-19  1.362537E-04 -7.946451E-06
       180 -6.740579E-05  1.354592E-04 -8.249767E-06
       181 -3.241622E-19  1.353668E-04 -1.266620E-05
       182  6.540194E-05  1.332116E-04 -1.680690E-05
       183 -8.782136E-20  1.349995E-04 -1.563209E-05
       184 -6.540194E-05  1.332116E-04 -1.680690E-05
       185 -3.051695E-21  1.361746E-04 -2.053311E-05
       186  5.693953E-05  1.154986E-04 -2.418901E-05
       187 -2.727446E-19  1.184789E-04 -1.791541E-05
       188 -5.693953E-05  1.154986E-04 -2.418901E-05
       189 -5.075897E-19  1.508359E-04 -3.326661E-05
       190 -1.508359E-04 -1.423015E-19  3.326661E-05
       191 -1.154986E-04  5.693953E-05  2.418901E-05
       192 -1.184789E-04 -1.594540E-19  1.791541E-05
       193 -1.154986E-04 -5.693953E-05  2.418901E-05
       194 -1.361746E-04  3.635889E-19  2.053311E-05
       195 -1.332116E-04  6.540194E-05  1.680690E-05
       196 -1.349995E-04  8.466094E-19  1.563209E-05
       197 -1.332116E-04 -6.540194E-05  1.680690E-05
       198 -1.353668E-04  2.399644E-18  1.266620E-05
       199 -1.354592E-04  6.740579E-05  8.249767E-06
       200 -1.362537E-04  3.168118E-18  7.946451E-06
       201 -1.354592E-04 -6.740579E-05  8.249767E-06
       202 -1.356085E-04  4.106129E-18  4.140336E-06
       203 -1.357010E-04  6.758123E-05  5.224140E-19
       204 -1.361489E-04  3.857388E-18  6.556035E-19
       205 -1.357010E-04 -6.758123E-05  7.255631E-19
       206 -1.356085E-04  4.339270E-18 -4.140336E-06
       207 -1.354592E-04  6.740579E-05 -8.249767E-06
       208 -1.362537E-04  4.197260E-18 -7.946451E-06
       209 -1.354592E-04 -6.740579E-05 -8.249767E-06
       210 -1.353668E-04  4.193025E-18 -1.266620E-05
       211 -1.332116E-04  6.540194E-05 -1.680690E-05
       212 -1.349995E-04  3.168644E-18 -1.563209E-05
       213 -1.332116E-04 -6.540194E-05 -1.680690E-05
       214 -1.361746E-04  1.286722E-18 -2.053311E-05
       215 -1.154986E-04  5.693953E-05 -2.418901E-05
       216 -1.184789E-04 -2.984732E-19 -1.791541E-05
       217 -1.154986E-04 -5.693953E-05 -2.418901E-05
       218 -1.508359E-04 -1.206488E-18 -3.326661E-05
       219 -4.455350E-19  1.495408E-19  5.637311E-05
       220 -6.436392E-19 -5.931523E-05  1.350321E-05
       221 -5.931523E-05  3.292841E-19  1.350321E-05
       222 -9.720392E-19  5.548873E-19  6.660450E-06
       223  5.931523E-05  8.939374E-19  1.350321E-05
       224 -1.414333E-18  5.931523E-05  1.350321E-05
       225 -1.434434E-18  1.045239E-18  2.235368E-05
       226 -1.194730E-18 -6.731297E-05  1.477062E-05
       227 -6.731297E-05  1.313642E-18  1.477062E-05
       228 -1.726990E-18  1.810162E-18  1.407424E-05
       229  6.731297E-05  2.198989E-18  1.477062E-05
       230 -2.183143E-18  6.731297E-05  1.477062E-05
       231 -1.873637E-18  2.760480E-18  1.261123E-05
       232 -1.366799E-18 -6.814682E-05  8.104956E-06
       233 -6.814682E-05  3.681655E-18  8.104956E-06
       234 -1.580581E-18  3.919910E-18  8.158726E-06
       235  6.814682E-05  3.947796E-18  8.104956E-06
       236 -1.682534E-18  6.814682E-05  8.104956E-06
       237 -1.212951E-18  4.141991E-18  4.038828E-06
       238 -4.818033E-19 -6.805620E-05  4.244032E-19
       239 -6.805620E-05  4.128439E-18  5.100788E-19
       240 -6.010493E-19  4.494926E-18  3.533322E-19
       241  6.805620E-05  4.737138E-18  2.092701E-19
       242 -1.026150E-18  6.805620E-05  1.871781E-19
       243 -7.589415E-19  4.673928E-18 -4.038828E-06
       244 -2.058538E-19 -6.814682E-05 -8.104956E-06
       245 -6.814682E-05  4.505643E-18 -8.104956E-06
       246 -1.409251E-19  4.777001E-18 -8.158726E-06
       247  6.814682E-05  4.781825E-18 -8.104956E-06
       248 -4.823853E-19  6.814682E-05 -8.104956E-06
       249 -9.237953E-21  4.304109E-18 -1.261123E-05
       250  6.127545E-19 -6.731297E-05 -1.477062E-05
       251 -6.731297E-05  3.276009E-18 -1.477062E-05
       252  6.130401E-19  3.249332E-18 -1.407424E-05
       253  6.731297E-05  3.546666E-18 -1.477062E-05
       254  1.996350E-19  6.731297E-05 -1.477062E-05
       255  4.489550E-19  1.858814E-18 -2.235368E-05
       256  7.208965E-19 -5.931523E-05 -1.350321E-05
       257 -5.931523E-05  1.226874E-19 -1.350321E-05
       258  3.898238E-19  5.295015E-19 -6.660450E-06
       259  5.931523E-05  7.489144E-19 -1.350321E-05
       260  7.602121E-20  5.931523E-05 -1.350321E-05
       261  1.928302E-19 -5.517957E-19 -5.637311E-05

 stresses (elem, integ.pnt.,sxx,syy,szz,sxy,sxz,syz) for set EALL and time  0.1000000E+01

         1   1 -3.338786E+01 -3.338786E+01 -5.389207E+01  1.941505E-01 -1.836541E+01 -1.836541E+01
         1   2 -2.955681E+01 -2.974430E+01 -4.525183E+01  9.798924E-02 -3.170808E+00 -1.825323E+01
         1   3 -2.974430E+01 -2.955681E+01 -4.525183E+01  9.798924E-02 -1.825323E+01 -3.170808E+00
         1   4 -2.595946E+01 -2.595946E+01 -3.643917E+01  4.723733E-02 -3.062146E+00 -3.062146E+00
         1   5  1.443370E+01  1.443370E+01 -3.379324E+01 -4.804352E-01  8.512900E+00  8.512900E+00
         1   6  1.049290E+01  1.067532E+01 -4.498598E+01 -3.982479E-01  2.973905E+00  8.095020E+00
         1   7  1.067532E+01  1.049290E+01 -4.498598E+01 -3.982479E-01  8.095020E+00  2.973905E+00
         1   8  5.904416E+00  5.904416E+00 -5.706972E+01 -1.465906E-01  2.905078E+00  2.905078E+00
         2   1 -2.955681E+01 -2.974430E+01 -4.525183E+01 -9.798924E-02  3.170808E+00 -1.825323E+01
         2   2 -3.338786E+01 -3.338786E+01 -5.389207E+01 -1.941505E-01  1.836541E+01 -1.836541E+01
         2   3 -2.595946E+01 -2.595946E+01 -3.643917E+01 -4.723733E-02  3.062146E+00 -3.062146E+00
         2   4 -2.974430E+01 -2.955681E+01 -4.525183E+01 -9.798924E-02  1.825323E+01 -3.170808E+00
         2   5  1.049290E+01  1.067532E+01 -4.498598E+01  3.982479E-01 -2.973905E+00  8.095020E+00
         2   6  1.443370E+01  1.443370E+01 -3.379324E+01  4.804352E-01 -8.512900E+00  8.512900E+00
         2   7  5.904416E+00  5.904416E+00 -5.706972E+01  1.465906E-01 -2.905078E+00  2.905078E+00
         2   8  1.067532E+01  1.049290E+01 -4.498598E+01  3.982479E-01 -8.095020E+00  2.973905E+00
         3   1 -2.974430E+01 -2.955681E+01 -4.525183E+01 -9.798924E-02 -1.825323E+01  3.170808E+00
         3   2 -2.595946E+01 -2.595946E+01 -3.643917E+01 -4.723733E-02 -3.062146E+00  3.062146E+00
         3   3 -3.338786E+01 -3.338786E+01 -5.389207E+01 -1.941505E-01 -1.836541E+01  1.836541E+01
         3   4 -2.955681E+01 -2.974430E+01 -4.525183E+01 -9.798924E-02 -3.170808E+00  1.825323E+01
         3   5  1.067532E+01  1.049290E+01 -4.498598E+01  3.982479E-01  8.095020E+00 -2.973905E+00
         3   6  5.904416E+00  5.904416E+00 -5.706972E+01  1.465906E-01  2.905078E+00 -2.905078E+00
         3   7  1.443370E+01  1.443370E+01 -3.379324E+01  4.804352E-01  8.512900E+00 -8.512900E+00
         3   8  1.049290E+01  1.067532E+01 -4.498598E+01  3.982479E-01  2.973905E+00 -8.095020E+00
         4   1 -2.595946E+01 -2.595946E+01 -3.643917E+01  4.723733E-02  3.062146E+00  3.062146E+00
         4   2 -2.974430E+01 -2.955681E+01 -4.525183E+01  9.798924E-02  1.825323E+01  3.170808E+00
         4   3 -2.955681E+01 -2.974430E+01 -4.525183E+01  9.798924E-02  3.170808E+00  1.825323E+01
         4   4 -3.338786E+01 -3.338786E+01 -5.389207E+01  1.941505E-01  1.836541E+01  1.836541E+01
         4   5  5.904416E+00  5.904416E+00 -5.706972E+01 -1.465906E-01 -2.905078E+00 -2.905078E+00
         4   6  1.067532E+01  1.049290E+01 -4.498598E+01 -3.982479E-01 -8.095020E+00 -2.973905E+00
         4   7  1.049290E+01  1.067532E+01 -4.498598E+01 -3.982479E-01 -2.973905E+00 -8.095020E+00
         4   8  1.443370E+01  1.443370E+01 -3.379324E+01 -4.804352E-01 -8.512900E+00 -8.512900E+00
         5   1 -7.138383E+00 -7.138383E+00 -4.995306E+01  6.188536E-02 -3.454875E+00 -3.454875E+00
         5   2 -4.524184E+00 -4.675618E+00 -4.518431E+01 -4.924413E-02 -1.747497E+00 -2.900656E+00
         5   3 -4.675618E+00 -4.524184E+00 -4.518431E+01 -4.924413E-02 -2.900656E+00 -1.747497E+00
         5   4 -2.527220E+00 -2.527220E+00 -4.051322E+01 -2.493323E-04 -1.642480E+00 -1.642480E+00
         5   5  2.494002E+00  2.494002E+00 -4.324863E+01  1.689712E-01  1.372485E+00  1.372485E+00
         5   6  1.338008E+00  1.404654E+00 -4.525753E+01  1.013817E-01  4.776714E-01  8.908333E-01
         5   7  1.404654E+00  1.338008E+00 -4.525753E+01  1.013817E-01  8.908333E-01  4.776714E-01
         5   8  3.028775E-01  3.028775E-01 -4.707121E+01  4.432302E-02  3.733054E-01  3.733054E-01
         6   1 -4.524184E+00 -4.675618E+00 -4.518431E+01  4.924413E-02  1.747497E+00 -2.900656E+00
         6   2 -7.138383E+00 -7.138383E+00 -4.995306E+01 -6.188536E-02  3.454875E+00 -3.454875E+00
         6   3 -2.527220E+00 -2.527220E+00 -4.051322E+01  2.493323E-04  1.642480E+00 -1.642480E+00
         6   4 -4.675618E+00 -4.524184E+00 -4.518431E+01  4.924413E-02  2.900656E+00 -1.747497E+00
         6   5  1.338008E+00  1.404654E+00 -4.525753E+01 -1.013817E-01 -4.776714E-01  8.908333E-01
         6   6  2.494002E+00  2.494002E+00 -4.324863E+01 -1.689712E-01 -1.372485E+00  1.372485E+00
         6   7  3.028775E-01  3.028775E-01 -4.707121E+01 -4.432302E-02 -3.733054E-01  3.733054E-01
         6   8  1.404654E+00  1.338008E+00 -4.525753E+01 -1.013817E-01 -8.908333E-01  4.776714E-01
         7   1 -4.675618E+00 -4.524184E+00 -4.518431E+01  4.924413E-02 -2.900656E+00  1.747497E+00
         7   2 -2.527220E+00 -2.527220E+00 -4.051322E+01  2.493323E-04 -1.642480E+00  1.642480E+00
         7   3 -7.138383E+00 -7.138383E+00 -4.995306E+01 -6.188536E-02 -3.454875E+00  3.454875E+00
         7   4 -4.524184E+00 -4.675618E+00 -4.518431E+01  4.924413E-02 -1.747497E+00  2.900656E+00
         7   5  1.404654E+00  1.338008E+00 -4.525753E+01 -1.013817E-01  8.908333E-01 -4.776714E-01
         7   6  3.028775E-01  3.028775E-01 -4.707121E+01 -4.432302E-02  3.733054E-01 -3.733054E-01
         7   7  2.494002E+00  2.494002E+00 -4.324863E+01 -1.689712E-01  1.372485E+00 -1.372485E+00
         7   8  1.338008E+00  1.404654E+00 -4.525753E+01 -1.013817E-01  4.776714E-01 -8.908333E-01
         8   1 -2.527220E+00 -2.527220E+00 -4.051322E+01 -2.493323E-04  1.642480E+00  1.642480E+00
         8   2 -4.675618E+00 -4.524184E+00 -4.518431E+01 -4.924413E-02  2.900656E+00  1.747497E+00
         8   3 -4.524184E+00 -4.675618E+00 -4.518431E+01 -4.924413E-02  1.747497E+00  2.900656E+00
         8   4 -7.138383E+00 -7.138383E+00 -4.995306E+01  6.188536E-02  3.454875E+00  3.454875E+00
         8   5  3.028775E-01  3.028775E-01 -4.707121E+01  4.432302E-02 -3.733054E-01 -3.733054E-01
         8   6  1.404654E+00  1.338008E+00 -4.525753E+01  1.013817E-01 -8.908333E-01 -4.776714E-01
         8   7  1.338008E+00  1.404654E+00 -4.525753E+01  1.013817E-01 -4.776714E-01 -8.908333E-01
         8   8  2.494002E+00  2.494002E+00 -4.324863E+01  1.689712E-01 -1.372485E+00 -1.372485E+00
         9   1 -8.968926E-01 -8.968926E-01 -4.605259E+01 -2.376103E-01 -7.301065E-01 -7.301065E-01
         9   2 -8.350820E-01 -4.337922E-01 -4.513015E+01 -1.334021E-01 -2.481948E-01 -3.345148E-01
         9   3 -4.337922E-01 -8.350820E-01 -4.513015E+01 -1.334021E-01 -3.345148E-01 -2.481948E-01
         9   4 -4.268837E-01 -4.268837E-01 -4.452202E+01 -6.018725E-02 -1.551911E-01 -1.551911E-01
         9   5  3.905893E-01  3.905893E-01 -4.484324E+01  1.136576E-01  2.700184E-01  2.700184E-01
         9   6  1.376983E-01  8.647321E-02 -4.528055E+01  6.933485E-02  1.036099E-01  1.570865E-02
         9   7  8.647321E-02  1.376983E-01 -4.528055E+01  6.933485E-02  1.570865E-02  1.036099E-01
         9   8 -5.951471E-02 -5.951471E-02 -4.543056E+01  3.016682E-02  1.972744E-02  1.972744E-02
        10   1 -8.350820E-01 -4.337922E-01 -4.513015E+01  1.334021E-01  2.481948E-01 -3.345148E-01
        10   2 -8.968926E-01 -8.968926E-01 -4.605259E+01  2.376103E-01  7.301065E-01 -7.301065E-01
        10   3 -4.268837E-01 -4.268837E-01 -4.452202E+01  6.018725E-02  1.551911E-01 -1.551911E-01
        10   4 -4.337922E-01 -8.350820E-01 -4.513015E+01  1.334021E-01  3.345148E-01 -2.481948E-01
        10   5  1.376983E-01  8.647321E-02 -4.528055E+01 -6.933485E-02 -1.036099E-01  1.570865E-02
        10   6  3.905893E-01  3.905893E-01 -4.484324E+01 -1.136576E-01 -2.700184E-01  2.700184E-01
        10   7 -5.951471E-02 -5.951471E-02 -4.543056E+01 -3.016682E-02 -1.972744E-02  1.972744E-02
        10   8  8.647321E-02  1.376983E-01 -4.528055E+01 -6.933485E-02 -1.570865E-02  1.036099E-01
        11   1 -4.337922E-01 -8.350820E-01 -4.513015E+01  1.334021E-01 -3.345148E-01  2.481948E-01
        11   2 -4.268837E-01 -4.268837E-01 -4.452202E+01  6.018725E-02 -1.551911E-01  1.551911E-01
        11   3 -8.968926E-01 -8.968926E-01 -4.605259E+01  2.376103E-01 -7.301065E-01  7.301065E-01
        11   4 -8.350820E-01 -4.337922E-01 -4.513015E+01  1.334021E-01 -2.481948E-01  3.345148E-01
        11   5  8.647321E-02  1.376983E-01 -4.528055E+01 -6.933485E-02  1.570865E-02 -1.036099E-01
        11   6 -5.951471E-02 -5.951471E-02 -4.543056E+01 -3.016682E-02  1.972744E-02 -1.972744E-02
        11   7  3.905893E-01  3.905893E-01 -4.484324E+01 -1.136576E-01  2.700184E-01 -2.700184E-01
        11   8  1.376983E-01  8.647321E-02 -4.528055E+01 -6.933485E-02  1.036099E-01 -1.570865E-02
        12   1 -4.268837E-01 -4.268837E-01 -4.452202E+01 -6.018725E-02  1.551911E-01  1.551911E-01
        12   2 -4.337922E-01 -8.350820E-01 -4.513015E+01 -1.334021E-01  3.345148E-01  2.481948E-01
        12   3 -8.350820E-01 -4.337922E-01 -4.513015E+01 -1.334021E-01  2.481948E-01  3.345148E-01
        12   4 -8.968926E-01 -8.968926E-01 -4.605259E+01 -2.376103E-01  7.301065E-01  7.301065E-01
        12   5 -5.951471E-02 -5.951471E-02 -4.543056E+01  3.016682E-02 -1.972744E-02 -1.972744E-02
        12   6  8.647321E-02  1.376983E-01 -4.528055E+01  6.933485E-02 -1.570865E-02 -1.036099E-01
        12   7  1.376983E-01  8.647321E-02 -4.528055E+01  6.933485E-02 -1.036099E-01 -1.570865E-02
        12   8  3.905893E-01  3.905893E-01 -4.484324E+01  1.136576E-01 -2.700184E-01 -2.700184E-01
        13   1 -2.232006E-01 -2.232006E-01 -4.535647E+01 -6.226182E-02 -1.328418E-01 -1.328418E-01
        13   2 -5.008809E-02 -2.843527E-02 -4.516051E+01 -4.660578E-02 -7.678855E-02  4.697339E-02
        13   3 -2.843527E-02 -5.008809E-02 -4.516051E+01 -4.660578E-02  4.697339E-02 -7.678855E-02
        13   4  2.772860E-02  2.772860E-02 -4.515742E+01 -1.803179E-02 -1.019242E-02 -1.019242E-02
        13   5  5.712689E-02  5.712689E-02 -4.518324E+01  1.439708E-02  9.653962E-02  9.653962E-02
        13   6 -6.489940E-04  7.522040E-03 -4.522105E+01  9.897538E-03  2.647965E-02 -4.094069E-02
        13   7  7.522040E-03 -6.489940E-04 -4.522105E+01  9.897538E-03 -4.094069E-02  2.647965E-02
        13   8 -1.675979E-02 -1.675979E-02 -4.520957E+01  3.377634E-03 -2.191703E-02 -2.191703E-02
        14   1 -5.008809E-02 -2.843527E-02 -4.516051E+01  4.660578E-02  7.678855E-02  4.697339E-02
        14   2 -2.232006E-01 -2.232006E-01 -4.535647E+01  6.226182E-02  1.328418E-01 -1.328418E-01
        14   3  2.772860E-02  2.772860E-02 -4.515742E+01  1.803179E-02  1.019242E-02 -1.019242E-02
        14   4 -2.843527E-02 -5.008809E-02 -4.516051E+01  4.660578E-02 -4.697339E-02 -7.678855E-02
        14   5 -6.489940E-04  7.522040E-03 -4.522105E+01 -9.897538E-03 -2.647965E-02 -4.094069E-02
        14   6  5.712689E-02  5.712689E-02 -4.518324E+01 -1.439708E-02 -9.653962E-02  9.653962E-02
        14   7 -1.675979E-02 -1.675979E-02 -4.520957E+01 -3.377634E-03  2.191703E-02 -2.191703E-02
        14   8  7.522040E-03 -6.489940E-04 -4.522105E+01 -9.897538E-03  4.094069E-02  2.647965E-02
        15   1 -2.843527E-02 -5.008809E-02 -4.516051E+01  4.660578E-02  4.697339E-02  7.678855E-02
        15   2  2.772860E-02  2.772860E-02 -4.515742E+01  1.803179E-02 -1.019242E-02  1.019242E-02
        15   3 -2.232006E-01 -2.232006E-01 -4.535647E+01  6.226182E-02 -1.328418E-01  1.328418E-01
        15   4 -5.008809E-02 -2.843527E-02 -4.516051E+01  4.660578E-02 -7.678855E-02 -4.697339E-02
        15   5  7.522040E-03 -6.489940E-04 -4.522105E+01 -9.897538E-03 -4.094069E-02 -2.647965E-02
        15   6 -1.675979E-02 -1.675979E-02 -4.520957E+01 -3.377634E-03 -2.191703E-02  2.191703E-02
        15   7  5.712689E-02  5.712689E-02 -4.518324E+01 -1.439708E-02  9.653962E-02 -9.653962E-02
        15   8 -6.489940E-04  7.522040E-03 -4.522105E+01 -9.897538E-03  2.647965E-02  4.094069E-02
        16   1  2.772860E-02  2.772860E-02 -4.515742E+01 -1.803179E-02  1.019242E-02  1.019242E-02
        16   2 -2.843527E-02 -5.008809E-02 -4.516051E+01 -4.660578E-02 -4.697339E-02  7.678855E-02
        16   3 -5.008809E-02 -2.843527E-02 -4.516051E+01 -4.660578E-02  7.678855E-02 -4.697339E-02
        16   4 -2.232006E-01 -2.232006E-01 -4.535647E+01 -6.226182E-02  1.328418E-01  1.328418E-01
        16   5 -1.675979E-02 -1.675979E-02 -4.520957E+01  3.377634E-03  2.191703E-02  2.191703E-02
        16   6  7.522040E-03 -6.489940E-04 -4.522105E+01  9.897538E-03  4.094069E-02 -2.647965E-02
        16   7 -6.489940E-04  7.522040E-03 -4.522105E+01  9.897538E-03 -2.647965E-02  4.094069E-02
        16   8  5.712689E-02  5.712689E-02 -4.518324E+01  1.439708E-02 -9.653962E-02 -9.653962E-02
        17   1  5.712689E-02  5.712689E-02 -4.518324E+01  1.439708E-02 -9.653962E-02 -9.653962E-02
        17   2 -6.489940E-04  7.522040E-03 -4.522105E+01  9.897538E-03 -2.647965E-02  4.094069E-02
        17   3  7.522040E-03 -6.489940E-04 -4.522105E+01  9.897538E-03  4.094069E-02 -2.647965E-02
        17   4 -1.675979E-02 -1.675979E-02 -4.520957E+01  3.377634E-03  2.191703E-02  2.191703E-02
        17   5 -2.232006E-01 -2.232006E-01 -4.535647E+01 -6.226182E-02  1.328418E-01  1.328418E-01
        17   6 -5.008809E-02 -2.843527E-02 -4.516051E+01 -4.660578E-02  7.678855E-02 -4.697339E-02
        17   7 -2.843527E-02 -5.008809E-02 -4.516051E+01 -4.660578E-02 -4.697339E-02  7.678855E-02
        17   8  2.772860E-02  2.772860E-02 -4.515742E+01 -1.803179E-02  1.019242E-02  1.019242E-02
        18   1 -6.489940E-04  7.522040E-03 -4.522105E+01 -9.897538E-03  2.647965E-02  4.094069E-02
        18   2  5.712689E-02  5.712689E-02 -4.518324E+01 -1.439708E-02  9.653962E-02 -9.653962E-02
        18   3 -1.675979E-02 -1.675979E-02 -4.520957E+01 -3.377634E-03 -2.191703E-02  2.191703E-02
        18   4  7.522040E-03 -6.489940E-04 -4.522105E+01 -9.897538E-03 -4.094069E-02 -2.647965E-02
        18   5 -5.008809E-02 -2.843527E-02 -4.516051E+01  4.660578E-02 -7.678855E-02 -4.697339E-02
        18   6 -2.232006E-01 -2.232006E-01 -4.535647E+01  6.226182E-02 -1.328418E-01  1.328418E-01
        18   7  2.772860E-02  2.772860E-02 -4.515742E+01  1.803179E-02 -1.019242E-02  1.019242E-02
        18   8 -2.843527E-02 -5.008809E-02 -4.516051E+01  4.660578E-02  4.697339E-02  7.678855E-02
        19   1  7.522040E-03 -6.489940E-04 -4.522105E+01 -9.897538E-03  4.094069E-02  2.647965E-02
        19   2 -1.675979E-02 -1.675979E-02 -4.520957E+01 -3.377634E-03  2.191703E-02 -2.191703E-02
        19   3  5.712689E-02  5.712689E-02 -4.518324E+01 -1.439708E-02 -9.653962E-02  9.653962E-02
        19   4 -6.489940E-04  7.522040E-03 -4.522105E+01 -9.897538E-03 -2.647965E-02 -4.094069E-02
        19   5 -2.843527E-02 -5.008809E-02 -4.516051E+01  4.660578E-02 -4.697339E-02 -7.678855E-02
        19   6  2.772860E-02  2.772860E-02 -4.515742E+01  1.803179E-02  1.019242E-02 -1.019242E-02
        19   7 -2.232006E-01 -2.232006E-01 -4.535647E+01  6.226182E-02  1.328418E-01 -1.328418E-01
        19   8 -5.008809E-02 -2.843527E-02 -4.516051E+01  4.660578E-02  7.678855E-02  4.697339E-02
        20   1 -1.675979E-02 -1.675979E-02 -4.520957E+01  3.377634E-03 -2.191703E-02 -2.191703E-02
        20   2  7.522040E-03 -6.489940E-04 -4.522105E+01  9.897538E-03 -4.094069E-02  2.647965E-02
        20   3 -6.489940E-04  7.522040E-03 -4.522105E+01  9.897538E-03  2.647965E-02 -4.094069E-02
        20   4  5.712689E-02  5.712689E-02 -4.518324E+01  1.439708E-02  9.653962E-02  9.653962E-02
        20   5  2.772860E-02  2.772860E-02 -4.515742E+01 -1.803179E-02 -1.019242E-02 -1.019242E-02
        20   6 -2.843527E-02 -5.008809E-02 -4.516051E+01 -4.660578E-02  4.697339E-02 -7.678855E-02
        20   7 -5.008809E-02 -2.843527E-02 -4.516051E+01 -4.660578E-02 -7.678855E-02  4.697339E-02
        20   8 -2.232006E-01 -2.232006E-01 -4.535647E+01 -6.226182E-02 -1.328418E-01 -1.328418E-01
        21   1  3.905893E-01  3.905893E-01 -4.484324E+01  1.136576E-01 -2.700184E-01 -2.700184E-01