
 displacements (vx,vy,vz) for set NALL and time  0.1000000E+01

         1 -2.016083E-06  1.685093E-05  5.696628E-04
         2  2.016083E-06  1.685093E-05  5.696628E-04
         3 -1.885356E-06  1.677047E-05 -5.672406E-04
         4  1.885356E-06  1.677047E-05 -5.672406E-04
         5 -2.016083E-06  1.685093E-05 -5.696628E-04
         6  2.016083E-06  1.685093E-05 -5.696628E-04
         7 -1.885356E-06  1.677047E-05  5.672406E-04
         8  1.885356E-06  1.677047E-05  5.672406E-04
         9 -1.088998E-06  1.636122E-05  5.697615E-04
        10 -9.026078E-20  1.546018E-05  5.698225E-04
        11  1.088998E-06  1.636122E-05  5.697615E-04
        12  2.087735E-06  9.297905E-06  2.854985E-04
        13  0.000000E+00  0.000000E+00  0.000000E+00
        14 -2.138854E-06  9.147343E-06 -2.841371E-04
        15 -1.043164E-06  1.610722E-05 -5.675545E-04
        16 -2.025492E-19  1.505876E-05 -5.678060E-04
        17  1.043164E-06  1.610722E-05 -5.675545E-04
        18  2.138854E-06  9.147343E-06 -2.841371E-04
        19  0.000000E+00  0.000000E+00  0.000000E+00
        20 -2.087735E-06  9.297905E-06  2.854985E-04
        21 -1.088998E-06  1.636122E-05 -5.697615E-04
        22 -1.500264E-18  1.546018E-05 -5.698225E-04
        23  1.088998E-06  1.636122E-05 -5.697615E-04
        24  2.087735E-06  9.297905E-06 -2.854985E-04
        25  0.000000E+00  0.000000E+00  0.000000E+00
        26 -2.138854E-06  9.147343E-06  2.841371E-04
        27 -1.043164E-06  1.610722E-05  5.675545E-04
        28  1.193917E-18  1.505876E-05  5.678060E-04
        29  1.043164E-06  1.610722E-05  5.675545E-04
        30  2.138854E-06  9.147343E-06  2.841371E-04
        31  0.000000E+00  0.000000E+00  0.000000E+00
        32 -2.087735E-06  9.297905E-06 -2.854985E-04
        33  4.466139E-06  5.885051E-04  5.624434E-04
        34  1.075593E-05  1.162043E-03  5.360115E-04
        35  1.643841E-05  1.688729E-03  4.917530E-04
        36  2.120063E-05  2.169814E-03  4.292032E-04
        37  2.635245E-05  2.571225E-03  3.487839E-04
        38  3.213811E-05  2.892159E-03  2.523933E-04
        39  3.858919E-05  3.100135E-03  1.324414E-04
        40  4.123383E-05  3.177125E-03  5.398976E-19
        41  3.858919E-05  3.100135E-03 -1.324414E-04
        42  3.213811E-05  2.892159E-03 -2.523933E-04
        43  2.635245E-05  2.571225E-03 -3.487839E-04
        44  2.120063E-05  2.169814E-03 -4.292032E-04
        45  1.643841E-05  1.688729E-03 -4.917530E-04
        46  1.075593E-05  1.162043E-03 -5.360115E-04
        47  4.466139E-06  5.885051E-04 -5.624434E-04
        48 -4.466139E-06  5.885051E-04 -5.624434E-04
        49 -1.075593E-05  1.162043E-03 -5.360115E-04
        50 -1.643841E-05  1.688729E-03 -4.917530E-04
        51 -2.120063E-05  2.169814E-03 -4.292032E-04
        52 -2.635245E-05  2.571225E-03 -3.487839E-04
        53 -3.213811E-05  2.892159E-03 -2.523933E-04
        54 -3.858919E-05  3.100135E-03 -1.324414E-04
        55 -4.123383E-05  3.177125E-03  8.916488E-19
        56 -3.858919E-05  3.100135E-03  1.324414E-04
        57 -3.213811E-05  2.892159E-03  2.523933E-04
        58 -2.635245E-05  2.571225E-03  3.487839E-04
        59 -2.120063E-05  2.169814E-03  4.292032E-04
        60 -1.643841E-05  1.688729E-03  4.917530E-04
        61 -1.075593E-05  1.162043E-03  5.360115E-04
        62 -4.466139E-06  5.885051E-04  5.624434E-04
        63 -4.492678E-06  5.871925E-04 -5.611465E-04
        64 -1.062466E-05  1.161520E-03 -5.346238E-04
        65 -1.713060E-05  1.688250E-03 -4.904225E-04
        66 -2.110304E-05  2.171113E-03 -4.273433E-04
        67 -2.627635E-05  2.568861E-03 -3.471635E-04
        68 -2.818087E-05  2.894795E-03 -2.494953E-04
        69 -4.408053E-05  3.100851E-03 -1.315163E-04
        70 -6.229596E-05  3.239416E-03  9.929774E-19
        71 -4.408053E-05  3.100851E-03  1.315163E-04
        72 -2.818087E-05  2.894795E-03  2.494953E-04
        73 -2.627635E-05  2.568861E-03  3.471635E-04
        74 -2.110304E-05  2.171113E-03  4.273433E-04
        75 -1.713060E-05  1.688250E-03  4.904225E-04
        76 -1.062466E-05  1.161520E-03  5.346238E-04
        77 -4.492678E-06  5.871925E-04  5.611465E-04
        78  4.492678E-06  5.871925E-04 -5.611465E-04
        79  1.062466E-05  1.161520E-03 -5.346238E-04
        80  1.713060E-05  1.688250E-03 -4.904225E-04
        81  2.110304E-05  2.171113E-03 -4.273433E-04
        82  2.627635E-05  2.568861E-03 -3.471635E-04
        83  2.818087E-05  2.894795E-03 -2.494953E-04
        84  4.408053E-05  3.100851E-03 -1.315163E-04
        85  6.229596E-05  3.239416E-03  6.869752E-19
        86  4.408053E-05  3.100851E-03  1.315163E-04
        87  2.818087E-05  2.894795E-03  2.494953E-04
        88  2.627635E-05  2.568861E-03  3.471635E-04
        89  2.110304E-05  2.171113E-03  4.273433E-04
        90  1.713060E-05  1.688250E-03  4.904225E-04
        91  1.062466E-05  1.161520E-03  5.346238E-04
        92  4.492678E-06  5.871925E-04  5.611465E-04
        93  3.882193E-20  8.414285E-06  2.854057E-04
        94  0.000000E+00  0.000000E+00  0.000000E+00
        95  0.000000E+00  0.000000E+00  0.000000E+00
        96  0.000000E+00  0.000000E+00  0.000000E+00
        97 -2.422839E-20  8.155576E-06 -2.840964E-04
        98 -2.418060E-19  8.414285E-06 -2.854057E-04
        99  0.000000E+00  0.000000E+00  0.000000E+00
       100  0.000000E+00  0.000000E+00  0.000000E+00
       101  0.000000E+00  0.000000E+00  0.000000E+00
       102  5.840882E-19  8.155576E-06  2.840964E-04
       103  2.421803E-19  5.868323E-04  5.632631E-04
       104 -5.356159E-06  1.157584E-03  5.374313E-04
       105  3.721320E-20  1.155753E-03  5.371554E-04
       106  5.356159E-06  1.157584E-03  5.374313E-04
       107  4.664858E-19  1.680832E-03  4.929168E-04
       108 -1.060011E-05  2.161108E-03  4.301979E-04
       109 -8.514005E-20  2.158021E-03  4.300452E-04
       110  1.060011E-05  2.161108E-03  4.301979E-04
       111 -1.632954E-19  2.558797E-03  3.502274E-04
       112 -1.608581E-05  2.880068E-03  2.534464E-04
       113  8.384303E-21  2.874984E-03  2.528628E-04
       114  1.608581E-05  2.880068E-03  2.534464E-04
       115  3.208851E-19  3.080602E-03  1.335274E-04
       116 -2.048045E-05  3.157902E-03  6.195541E-19
       117  6.023049E-19  3.154521E-03  3.399104E-19
       118  2.048045E-05  3.157902E-03  3.108098E-19
       119  3.091108E-19  3.080602E-03 -1.335274E-04
       120 -1.608581E-05  2.880068E-03 -2.534464E-04
       121  1.570072E-19  2.874984E-03 -2.528628E-04
       122  1.608581E-05  2.880068E-03 -2.534464E-04
       123  1.371978E-19  2.558797E-03 -3.502274E-04
       124 -1.060011E-05  2.161108E-03 -4.301979E-04
       125  3.193910E-20  2.158021E-03 -4.300452E-04
       126  1.060011E-05  2.161108E-03 -4.301979E-04
       127  1.105974E-19  1.680832E-03 -4.929168E-04
       128 -5.356159E-06  1.157584E-03 -5.374313E-04
       129 -2.422047E-19  1.155753E-03 -5.371554E-04
       130  5.356159E-06  1.157584E-03 -5.374313E-04
       131 -7.551663E-20  5.868323E-04 -5.632631E-04
       132 -1.406010E-07  5.967362E-04  5.043466E-07
       133  5.110580E-06  1.161955E-03  2.646296E-04
       134 -1.153197E-07  1.159640E-03  5.705039E-07
       135 -5.235680E-06  1.161711E-03 -2.633216E-04
       136 -4.812121E-08  1.698517E-03  7.518115E-07
       137  1.049915E-05  2.174783E-03  2.123846E-04
       138 -2.345500E-07  2.174555E-03  6.364717E-07
       139 -1.024432E-05  2.175390E-03 -2.110287E-04
       140 -7.681609E-08  2.588035E-03  1.014081E-06
       141  1.632451E-05  2.901542E-03  1.225882E-04
       142  7.667470E-08  2.902005E-03 -3.587366E-07
       143 -1.600542E-05  2.903196E-03 -1.206968E-04
       144 -6.225445E-07  3.120906E-03  4.053459E-06
       145  1.879948E-05  3.188863E-03  4.817693E-19
       146 -7.398087E-07  3.193153E-03  5.374896E-19
       147 -2.315174E-05  3.218744E-03  4.923975E-19
       148 -6.225445E-07  3.120906E-03 -4.053459E-06
       149  1.632451E-05  2.901542E-03 -1.225882E-04
       150  7.667470E-08  2.902005E-03  3.587366E-07
       151 -1.600542E-05  2.903196E-03  1.206968E-04
       152 -7.681609E-08  2.588035E-03 -1.014081E-06
       153  1.049915E-05  2.174783E-03 -2.123846E-04
       154 -2.345500E-07  2.174555E-03 -6.364717E-07
       155 -1.024432E-05  2.175390E-03  2.110287E-04
       156 -4.812121E-08  1.698517E-03 -7.518115E-07
       157  5.110580E-06  1.161955E-03 -2.646296E-04
       158 -1.153197E-07  1.159640E-03 -5.705039E-07
       159 -5.235680E-06  1.161711E-03  2.633216E-04
       160 -1.406010E-07  5.967362E-04 -5.043466E-07
       161  3.805378E-19  5.858431E-04 -5.619426E-04
       162 -5.311156E-06  1.157074E-03 -5.361578E-04
       163  5.536154E-19  1.154815E-03 -5.358558E-04
       164  5.311156E-06  1.157074E-03 -5.361578E-04
       165  7.276372E-19  1.680376E-03 -4.915099E-04
       166 -1.045891E-05  2.160574E-03 -4.283850E-04
       167  1.111641E-18  2.157410E-03 -4.287018E-04
       168  1.045891E-05  2.160574E-03 -4.283850E-04
       169  1.138393E-18  2.558386E-03 -3.480312E-04
       170 -1.449442E-05  2.884126E-03 -2.509964E-04
       171  1.296364E-18  2.873721E-03 -2.498157E-04
       172  1.449442E-05  2.884126E-03 -2.509964E-04
       173  1.766407E-18  3.082276E-03 -1.343462E-04
       174 -2.987954E-05  3.188978E-03  4.710835E-19
       175  1.722426E-18  3.179972E-03  1.682436E-19
       176  2.987954E-05  3.188978E-03  5.037414E-19
       177  1.409609E-18  3.082276E-03  1.343462E-04
       178 -1.449442E-05  2.884126E-03  2.509964E-04
       179  1.281113E-18  2.873721E-03  2.498157E-04
       180  1.449442E-05  2.884126E-03  2.509964E-04
       181  1.491575E-18  2.558386E-03  3.480312E-04
       182 -1.045891E-05  2.160574E-03  4.283850E-04
       183  1.211656E-18  2.157410E-03  4.287018E-04
       184  1.045891E-05  2.160574E-03  4.283850E-04
       185  1.766943E-18  1.680376E-03  4.915099E-04
       186 -5.311156E-06  1.157074E-03  5.361578E-04
       187  1.975359E-18  1.154815E-03  5.358558E-04
       188  5.311156E-06  1.157074E-03  5.361578E-04
       189  1.917775E-18  5.858431E-04  5.619426E-04
       190  1.406010E-07  5.967362E-04  5.043466E-07
       191  5.235680E-06  1.161711E-03 -2.633216E-04
       192  1.153197E-07  1.159640E-03  5.705039E-07
       193 -5.110580E-06  1.161955E-03  2.646296E-04
       194  4.812121E-08  1.698517E-03  7.518115E-07
       195  1.024432E-05  2.175390E-03 -2.110287E-04
       196  2.345500E-07  2.174555E-03  6.364717E-07
       197 -1.049915E-05  2.174783E-03  2.123846E-04
       198  7.681609E-08  2.588035E-03  1.014081E-06
       199  1.600542E-05  2.903196E-03 -1.206968E-04
       200 -7.667470E-08  2.902005E-03 -3.587366E-07
       201 -1.632451E-05  2.901542E-03  1.225882E-04
       202  6.225445E-07  3.120906E-03  4.053459E-06
       203  2.315174E-05  3.218744E-03  6.355269E-19
       204  7.398087E-07  3.193153E-03  6.508259E-19
       205 -1.879948E-05  3.188863E-03  8.430598E-19
       206  6.225445E-07  3.120906E-03 -4.053459E-06
       207  1.600542E-05  2.903196E-03  1.206968E-04
       208 -7.667470E-08  2.902005E-03  3.587366E-07
       209 -1.632451E-05  2.901542E-03 -1.225882E-04
       210  7.681609E-08  2.588035E-03 -1.014081E-06
       211  1.024432E-05  2.175390E-03  2.110287E-04
       212  2.345500E-07  2.174555E-03 -6.364717E-07
       213 -1.049915E-05  2.174783E-03 -2.123846E-04
       214  4.812121E-08  1.698517E-03 -7.518115E-07
       215  5.235680E-06  1.161711E-03  2.633216E-04
       216  1.153197E-07  1.159640E-03 -5.705039E-07
       217 -5.110580E-06  1.161955E-03 -2.646296E-04
       218  1.406010E-07  5.967362E-04 -5.043466E-07
       219  1.334469E-19  5.933437E-04  4.676315E-07
       220  1.256350E-19  1.156749E-03  2.660288E-04
       221  5.101075E-08  1.156122E-03  6.648169E-07
       222  6.526607E-19  1.155459E-03  7.102228E-07
       223 -5.101075E-08  1.156122E-03  6.648169E-07
       224  2.806822E-19  1.156235E-03 -2.647745E-04
       225  2.701936E-19  1.689841E-03  6.829374E-07
       226  4.052615E-19  2.164273E-03  2.133902E-04
       227  1.352671E-07  2.167513E-03  6.757348E-07
       228  2.307569E-19  2.165275E-03  8.067388E-07
       229 -1.352671E-07  2.167513E-03  6.757348E-07
       230  1.019480E-18  2.164104E-03 -2.118496E-04
       231  6.618222E-19  2.573834E-03  8.937645E-07
       232  3.408944E-19  2.886125E-03  1.240427E-04
       233 -9.503203E-08  2.890232E-03  2.053066E-07
       234  8.514909E-19  2.888612E-03  6.219120E-07
       235  9.503203E-08  2.890232E-03  2.053066E-07
       236  1.027995E-18  2.885197E-03 -1.217727E-04
       237  5.657337E-19  3.099350E-03  2.744007E-06
       238  3.227609E-19  3.168672E-03  5.267281E-19
       239  4.941556E-08  3.181972E-03  6.208289E-19
       240  6.454783E-19  3.173512E-03  7.342485E-19
       241 -4.941556E-08  3.181972E-03  7.405750E-19
       242  1.092169E-18  3.181440E-03  6.058010E-19
       243  1.118386E-18  3.099350E-03 -2.744007E-06
       244  3.424731E-19  2.886125E-03 -1.240427E-04
       245 -9.503203E-08  2.890232E-03 -2.053066E-07
       246  1.155807E-18  2.888612E-03 -6.219120E-07
       247  9.503203E-08  2.890232E-03 -2.053066E-07
       248  1.481202E-18  2.885197E-03  1.217727E-04
       249  1.201612E-18  2.573834E-03 -8.937645E-07
       250  4.212445E-19  2.164273E-03 -2.133902E-04
       251  1.352671E-07  2.167513E-03 -6.757348E-07
       252  9.941411E-19  2.165275E-03 -8.067388E-07
       253 -1.352671E-07  2.167513E-03 -6.757348E-07
       254  1.114044E-18  2.164104E-03  2.118496E-04
       255  5.766863E-19  1.689841E-03 -6.829374E-07
       256  1.573595E-19  1.156749E-03 -2.660288E-04
       257  5.101075E-08  1.156122E-03 -6.648169E-07
       258  1.199617E-18  1.155459E-03 -7.102228E-07
       259 -5.101075E-08  1.156122E-03 -6.648169E-07
       260  1.497588E-18  1.156235E-03  2.647745E-04
       261  2.453909E-19  5.933437E-04 -4.676315E-07

 stresses (elem, integ.pnt.,sxx,syy,szz,sxy,sxz,syz) for set EALL and time  0.1000000E+01

         1   1  1.948059E-01 -5.267034E-01 -2.253842E+00 -1.501271E-01 -3.353397E-02  1.186498E+00
         1   2  2.812437E-01 -7.156263E-01 -2.080842E+00 -1.088686E-01 -3.316808E-02  1.083076E+00
         1   3 -8.084552E-01 -2.385106E+00 -1.694945E+00  2.131299E-01  4.291165E-02  3.896716E+00
         1   4 -7.772619E-01 -2.457276E+00 -1.606953E+00 -1.334732E-02  8.138721E-04  3.586511E+00
         1   5  7.605978E-02  1.055209E+00 -9.236490E+00 -3.957052E-02 -2.101872E-01  2.247070E+00
         1   6  1.047573E-01  1.007808E+00 -9.100132E+00  1.138217E-02 -1.631237E-01  1.904847E+00
         1   7  2.128769E-01  1.061703E+00 -2.492755E+00 -6.375296E-02  3.323897E-02  3.051347E+00
         1   8  2.529322E-01  1.036274E+00 -2.360434E+00  1.674035E-02  9.172778E-03  2.702557E+00
         2   1  2.812437E-01 -7.156263E-01 -2.080842E+00  1.088686E-01  3.316808E-02  1.083076E+00
         2   2  1.948059E-01 -5.267034E-01 -2.253842E+00  1.501271E-01  3.353397E-02  1.186498E+00
         2   3 -7.772619E-01 -2.457276E+00 -1.606953E+00  1.334732E-02 -8.138721E-04  3.586511E+00
         2   4 -8.084552E-01 -2.385106E+00 -1.694945E+00 -2.131299E-01 -4.291165E-02  3.896716E+00
         2   5  1.047573E-01  1.007808E+00 -9.100132E+00 -1.138217E-02  1.631237E-01  1.904847E+00
         2   6  7.605978E-02  1.055209E+00 -9.236490E+00  3.957052E-02  2.101872E-01  2.247070E+00
         2   7  2.529322E-01  1.036274E+00 -2.360434E+00 -1.674035E-02 -9.172778E-03  2.702557E+00
         2   8  2.128769E-01  1.061703E+00 -2.492755E+00  6.375296E-02 -3.323897E-02  3.051347E+00
         3   1  9.243273E-01  2.473096E+00  2.256616E+00  2.337415E-01 -1.626902E-02  4.115282E+00
         3   2  9.014363E-01  2.589891E+00  2.164273E+00 -4.451013E-03 -3.109573E-04  3.827927E+00
         3   3 -2.321211E-01  5.203082E-01  2.206720E+00 -1.735303E-01  3.801183E-02  1.190825E+00
         3   4 -3.151307E-01  7.450818E-01  2.106214E+00 -1.135093E-01  3.246469E-02  1.112924E+00
         3   5 -3.025685E-01 -1.181155E+00  2.720263E+00 -6.425822E-02 -4.192094E-02  3.097150E+00
         3   6 -3.109018E-01 -1.134413E+00  2.646741E+00  5.867697E-04 -1.935419E-02  2.704514E+00
         3   7 -1.170709E-02 -1.061386E+00  9.550057E+00 -4.537245E-02  1.686028E-01  2.343771E+00
         3   8 -7.652610E-02 -1.003004E+00  9.371998E+00 -4.857943E-02  1.671816E-01  1.949011E+00
         4   1  9.014363E-01  2.589891E+00  2.164273E+00  4.451013E-03  3.109573E-04  3.827927E+00
         4   2  9.243273E-01  2.473096E+00  2.256616E+00 -2.337415E-01  1.626902E-02  4.115282E+00
         4   3 -3.151307E-01  7.450818E-01  2.106214E+00  1.135093E-01 -3.246469E-02  1.112924E+00
         4   4 -2.321211E-01  5.203082E-01  2.206720E+00  1.735303E-01 -3.801183E-02  1.190825E+00
         4   5 -3.109018E-01 -1.134413E+00  2.646741E+00 -5.867697E-04  1.935419E-02  2.704514E+00
         4   6 -3.025685E-01 -1.181155E+00  2.720263E+00  6.425822E-02  4.192094E-02  3.097150E+00
         4   7 -7.652610E-02 -1.003004E+00  9.371998E+00  4.857943E-02 -1.671816E-01  1.949011E+00
         4   8 -1.170709E-02 -1.061386E+00  9.550057E+00  4.537245E-02 -1.686028E-01  2.343771E+00
         5   1 -1.223851E-01 -7.374752E-01 -1.419645E+01  6.122465E-02 -1.315886E-01  8.750129E-01
         5   2 -1.437999E-01 -7.022973E-01 -1.421688E+01  9.818511E-04 -1.646714E-01  7.150062E-01
         5   3 -6.949866E-02 -3.268223E-01 -3.625461E+00 -2.177736E-02  7.053695E-03  4.535023E+00
         5   4 -1.042861E-01 -3.460382E-01 -3.705988E+00 -1.137489E-02  4.898888E-03  3.890891E+00
         5   5  4.526365E-02 -9.054608E-02 -2.102045E+01 -6.972446E-04 -1.047857E-01  1.865490E+00
         5   6  4.553962E-02 -1.012678E-03 -2.106695E+01 -5.392035E-03 -1.219448E-01  1.585436E+00
         5   7  1.002395E-01  1.660348E-01 -5.410334E+00  7.936733E-02  2.039536E-02  3.350190E+00
         5   8  1.217370E-01  2.606695E-01 -5.361341E+00 -4.009851E-02  2.498672E-02  3.034566E+00
         6   1 -1.437999E-01 -7.022973E-01 -1.421688E+01 -9.818511E-04  1.646714E-01  7.150062E-01
         6   2 -1.223851E-01 -7.374752E-01 -1.419645E+01 -6.122465E-02  1.315886E-01  8.750129E-01
         6   3 -1.042861E-01 -3.460382E-01 -3.705988E+00  1.137489E-02 -4.898888E-03  3.890891E+00
         6   4 -6.949866E-02 -3.268223E-01 -3.625461E+00  2.177736E-02 -7.053695E-03  4.535023E+00
         6   5  4.553962E-02 -1.012678E-03 -2.106695E+01  5.392035E-03  1.219448E-01  1.585436E+00
         6   6  4.526365E-02 -9.054608E-02 -2.102045E+01  6.972446E-04  1.047857E-01  1.865490E+00
         6   7  1.217370E-01  2.606695E-01 -5.361341E+00  4.009851E-02 -2.498672E-02  3.034566E+00
         6   8  1.002395E-01  1.660348E-01 -5.410334E+00 -7.936733E-02 -2.039536E-02  3.350190E+00
         7   1  1.147750E-01  3.848297E-01  3.943428E+00  7.096160E-03 -2.341504E-02  4.506410E+00
         7   2  1.342701E-01  3.891463E-01  3.968748E+00 -1.902669E-03 -1.826032E-02  3.876480E+00
         7   3  3.978091E-02  7.146576E-01  1.441489E+01  1.140045E-01  1.935441E-01  8.437134E-01
         7   4  1.102353E-01  7.387092E-01  1.451940E+01  2.396333E-02  1.822282E-01  7.573629E-01
         7   5 -1.452725E-02 -5.377173E-03  5.611642E+00 -6.928693E-02 -1.781934E-02  3.384554E+00
         7   6 -6.122015E-02 -2.119605E-01  5.627879E+00 -3.280242E-02 -2.897379E-03  3.055371E+00
         7   7  2.392936E-02  3.146579E-01  2.143238E+01 -1.675937E-01  3.167595E-02  2.105440E+00
         7   8 -4.044366E-02 -1.178426E-01  2.129437E+01  1.184808E-01  4.785715E-02  1.618697E+00
         8   1  1.342701E-01  3.891463E-01  3.968748E+00  1.902669E-03  1.826032E-02  3.876480E+00
         8   2  1.147750E-01  3.848297E-01  3.943428E+00 -7.096160E-03  2.341504E-02  4.506410E+00
         8   3  1.102353E-01  7.387092E-01  1.451940E+01 -2.396333E-02 -1.822282E-01  7.573629E-01
         8   4  3.978091E-02  7.146576E-01  1.441489E+01 -1.140045E-01 -1.935441E-01  8.437134E-01
         8   5 -6.122015E-02 -2.119605E-01  5.627879E+00  3.280242E-02  2.897379E-03  3.055371E+00
         8   6 -1.452725E-02 -5.377173E-03  5.611642E+00  6.928693E-02  1.781934E-02  3.384554E+00
         8   7 -4.044366E-02 -1.178426E-01  2.129437E+01 -1.184808E-01 -4.785715E-02  1.618697E+00
         8   8  2.392936E-02  3.146579E-01  2.143238E+01  1.675937E-01 -3.167595E-02  2.105440E+00
         9   1 -6.752341E-02  1.748416E-01 -2.612100E+01 -1.596393E-02 -1.279812E-01  1.206689E+00
         9   2 -5.557969E-02  8.708409E-02 -2.600728E+01  1.541633E-02 -1.063803E-01  1.059311E+00
         9   3  3.802859E-02  1.956668E-01 -6.835444E+00 -3.016616E-02 -3.684029E-02  4.262566E+00
         9   4 -4.455358E-02  2.375667E-02 -6.931834E+00 -1.944618E-02 -3.175340E-03  3.607163E+00
         9   5  2.316726E-01  3.607951E-01 -3.238689E+01  1.501560E-03 -1.513335E-01  1.596202E+00
         9   6  2.065957E-01  3.075104E-01 -3.253950E+01 -3.506190E-02 -1.701118E-01  1.322234E+00
         9   7 -4.755227E-01 -8.499568E-01 -9.560196E+00 -1.224307E-01  4.210005E-02  3.190200E+00
         9   8 -2.079784E-01 -5.486325E-01 -9.195706E+00  2.628962E-01  2.683790E-02  2.963040E+00
        10   1 -5.557969E-02  8.708409E-02 -2.600728E+01 -1.541633E-02  1.063803E-01  1.059311E+00
        10   2 -6.752341E-02  1.748416E-01 -2.612100E+01  1.596393E-02  1.279812E-01  1.206689E+00
        10   3 -4.455358E-02  2.375667E-02 -6.931834E+00  1.944618E-02  3.175340E-03  3.607163E+00
        10   4  3.802859E-02  1.956668E-01 -6.835444E+00  3.016616E-02  3.684029E-02  4.262566E+00
        10   5  2.065957E-01  3.075104E-01 -3.253950E+01  3.506190E-02  1.701118E-01  1.322234E+00
        10   6  2.316726E-01  3.607951E-01 -3.238689E+01 -1.501560E-03  1.513335E-01  1.596202E+00
        10   7 -2.079784E-01 -5.486325E-01 -9.195706E+00 -2.628962E-01 -2.683790E-02  2.963040E+00
        10   8 -4.755227E-01 -8.499568E-01 -9.560196E+00  1.224307E-01 -4.210005E-02  3.190200E+00
        11   1 -9.226766E-02 -3.510523E-01  7.295676E+00  1.644866E-02  7.400245E-02  4.172102E+00
        11   2  8.266861E-03  1.787717E-02  7.290315E+00  1.464542E-02  8.354706E-03  3.632666E+00
        11   3 -2.205208E-01 -6.196413E-01  2.613364E+01  1.088729E-01  2.878594E-01  9.369962E-01
        11   4 -6.338910E-02 -1.844637E-01  2.628863E+01  1.269825E-01  1.578065E-01  1.123038E+00
        11   5  3.090400E-01  1.353623E+00  9.134291E+00  1.985942E-01 -4.452966E-02  3.737196E+00
        11   6  7.533696E-02  8.361130E-01  9.073503E+00  8.826074E-02  1.222551E-02  3.235696E+00
        11   7  7.877676E-01  5.969201E-01  3.331964E+01  8.219181E-02 -2.326721E-01  2.326601E+00
        11   8  3.499368E-01  6.502890E-01  3.327615E+01 -9.657344E-01  2.360909E-01  1.627316E+00
        12   1  8.266861E-03  1.787717E-02  7.290315E+00 -1.464542E-02 -8.354706E-03  3.632666E+00
        12   2 -9.226766E-02 -3.510523E-01  7.295676E+00 -1.644866E-02 -7.400245E-02  4.172102E+00
        12   3 -6.338910E-02 -1.844637E-01  2.628863E+01 -1.269825E-01 -1.578065E-01  1.123038E+00
        12   4 -2.205208E-01 -6.196413E-01  2.613364E+01 -1.088729E-01 -2.878594E-01  9.369962E-01
        12   5  7.533696E-02  8.361130E-01  9.073503E+00 -8.826074E-02 -1.222551E-02  3.235696E+00
        12   6  3.090400E-01  1.353623E+00  9.134291E+00 -1.985942E-01  4.452966E-02  3.737196E+00
        12   7  3.499368E-01  6.502890E-01  3.327615E+01  9.657344E-01 -2.360909E-01  1.627316E+00
        12   8  7.877676E-01  5.969201E-01  3.331964E+01 -8.219181E-02  2.326721E-01  2.326601E+00
        13   1 -1.756276E-01 -5.562399E-01 -3.877999E+01  8.655395E-03 -2.238878E-01  1.848006E+00
        13   2 -1.425276E-01 -4.985855E-01 -3.880021E+01 -5.471618E-02 -1.818268E-01  1.532209E+00
        13   3  5.505095E-01  4.187200E-01 -8.314216E+00 -3.777221E-02  6.027139E-02  5.035594E+00
        13   4  4.492882E-01  1.520197E-01 -8.936140E+00 -1.061842E-01 -4.796818E-02  4.114386E+00
        13   5 -7.946751E-02  3.111174E-01 -4.420728E+01 -4.268025E-02 -4.080720E-02  1.179431E+00
        13   6 -1.061810E-01  5.419241E-01 -4.435632E+01  3.156636E-01 -2.490388E-02  9.143182E-01
        13   7 -2.424987E-01  2.006834E+00 -1.235376E+01  3.125540E-01 -6.417891E-02  1.510225E+00
        13   8  5.723151E-02  1.637600E+00 -1.219229E+01 -9.430613E-01 -1.109926E-01  1.491999E+00
        14   1 -1.425276E-01 -4.985855E-01 -3.880021E+01  5.471618E-02  1.818268E-01  1.532209E+00
        14   2 -1.756276E-01 -5.562399E-01 -3.877999E+01 -8.655395E-03  2.238878E-01  1.848006E+00
        14   3  4.492882E-01  1.520197E-01 -8.936140E+00  1.061842E-01  4.796818E-02  4.114386E+00
        14   4  5.505095E-01  4.187200E-01 -8.314216E+00  3.777221E-02 -6.027139E-02  5.035594E+00
        14   5 -1.061810E-01  5.419241E-01 -4.435632E+01 -3.156636E-01  2.490388E-02  9.143182E-01
        14   6 -7.946751E-02  3.111174E-01 -4.420728E+01  4.268025E-02  4.080720E-02  1.179431E+00
        14   7  5.723151E-02  1.637600E+00 -1.219229E+01  9.430613E-01  1.109926E-01  1.491999E+00
        14   8 -2.424987E-01  2.006834E+00 -1.235376E+01 -3.125540E-01  6.417891E-02  1.510225E+00
        15   1 -6.084057E-01 -1.972446E+00  1.054672E+01 -1.110760E-01 -2.815829E-01  4.239407E+00
        15   2 -2.838735E-01 -1.197190E+00  1.034958E+01 -3.204307E-02 -1.915676E-01  3.401470E+00
        15   3 -7.675761E-01 -2.179159E+00  3.767473E+01  2.940686E-01  3.863127E-01 -3.025108E-01
        15   4 -6.325204E-01 -1.339277E+00  3.738984E+01  3.570501E-01  1.503851E-01  1.340491E-01
        15   5  1.513047E+00  5.511244E+00  1.196890E+01 -8.368641E-01 -2.058695E-01  2.456551E+00
        15   6  1.290488E+00  2.543518E+00  1.159547E+01 -6.563291E-01 -2.169684E-01  1.732807E+00
        15   7 -8.172208E-01  8.538209E+00  4.568224E+01 -1.676558E+00  9.539169E-01  6.918246E+00
        15   8 -9.640349E-01  3.703936E+00  4.500343E+01  1.963744E+00  8.511386E-02  3.794316E+00
        16   1 -2.838735E-01 -1.197190E+00  1.034958E+01  3.204307E-02  1.915676E-01  3.401470E+00
        16   2 -6.084057E-01 -1.972446E+00  1.054672E+01  1.110760E-01  2.815829E-01  4.239407E+00
        16   3 -6.325204E-01 -1.339277E+00  3.738984E+01 -3.570501E-01 -1.503851E-01  1.340491E-01
        16   4 -7.675761E-01 -2.179159E+00  3.767473E+01 -2.940686E-01 -3.863127E-01 -3.025108E-01
        16   5  1.290488E+00  2.543518E+00  1.159547E+01  6.563291E-01  2.169684E-01  1.732807E+00
        16   6  1.513047E+00  5.511244E+00  1.196890E+01  8.368641E-01  2.058695E-01  2.456551E+00
        16   7 -9.640349E-01  3.703936E+00  4.500343E+01 -1.963744E+00 -8.511386E-02  3.794316E+00
        16   8 -8.172208E-01  8.538209E+00  4.568224E+01  1.676558E+00 -9.539169E-01  6.918246E+00
        17   1 -7.946751E-02  3.111174E-01 -4.420728E+01 -4.268025E-02  4.080720E-02 -1.179431E+00
        17   2 -1.061810E-01  5.419241E-01 -4.435632E+01  3.156636E-01  2.490388E-02 -9.143182E-01
        17   3 -2.424987E-01  2.006834E+00 -1.235376E+01  3.125540E-01  6.417891E-02 -1.510225E+00
        17   4  5.723151E-02  1.637600E+00 -1.219229E+01 -9.430613E-01  1.109926E-01 -1.491999E+00
        17   5 -1.756276E-01 -5.562399E-01 -3.877999E+01  8.655395E-03  2.238878E-01 -1.848006E+00
        17   6 -1.425276E-01 -4.985855E-01 -3.880021E+01 -5.471618E-02  1.818268E-01 -1.532209E+00
        17   7  5.505095E-01  4.187200E-01 -8.314216E+00 -3.777221E-02 -6.027139E-02 -5.035594E+00
        17   8  4.492882E-01  1.520197E-01 -8.936140E+00 -1.061842E-01  4.796818E-02 -4.114386E+00
        18   1 -1.061810E-01  5.419241E-01 -4.435632E+01 -3.156636E-01 -2.490388E-02 -9.143182E-01
        18   2 -7.946751E-02  3.111174E-01 -4.420728E+01  4.268025E-02 -4.080720E-02 -1.179431E+00
        18   3  5.723151E-02  1.637600E+00 -1.219229E+01  9.430613E-01 -1.109926E-01 -1.491999E+00
        18   4 -2.424987E-01  2.006834E+00 -1.235376E+01 -3.125540E-01 -6.417891E-02 -1.510225E+00
        18   5 -1.425276E-01 -4.985855E-01 -3.880021E+01  5.471618E-02 -1.818268E-01 -1.532209E+00
        18   6 -1.756276E-01 -5.562399E-01 -3.877999E+01 -8.655395E-03 -2.238878E-01 -1.848006E+00
        18   7  4.492882E-01  1.520197E-01 -8.936140E+00  1.061842E-01 -4.796818E-02 -4.114386E+00
        18   8  5.505095E-01  4.187200E-01 -8.314216E+00  3.777221E-02  6.027139E-02 -5.035594E+00
        19   1  1.513047E+00  5.511244E+00  1.196890E+01 -8.368641E-01  2.058695E-01 -2.456551E+00
        19   2  1.290488E+00  2.543518E+00  1.159547E+01 -6.563291E-01  2.169684E-01 -1.732807E+00
        19   3 -8.172208E-01  8.538209E+00  4.568224E+01 -1.676558E+00 -9.539169E-01 -6.918246E+00
        19   4 -9.640349E-01  3.703936E+00  4.500343E+01  1.963744E+00 -8.511386E-02 -3.794316E+00
        19   5 -6.084057E-01 -1.972446E+00  1.054672E+01 -1.110760E-01  2.815829E-01 -4.239407E+00
        19   6 -2.838735E-01 -1.197190E+00  1.034958E+01 -3.204307E-02  1.915676E-01 -3.401470E+00
        19   7 -7.675761E-01 -2.179159E+00  3.767473E+01  2.940686E-01 -3.863127E-01  3.025108E-01
        19   8 -6.325204E-01 -1.339277E+00  3.738984E+01  3.570501E-01 -1.503851E-01 -1.340491E-01
        20   1  1.290488E+00  2.543518E+00  1.159547E+01  6.563291E-01 -2.169684E-01 -1.732807E+00
        20   2  1.513047E+00  5.511244E+00  1.196890E+01  8.368641E-01 -2.058695E-01 -2.456551E+00
        20   3 -9.640349E-01  3.703936E+00  4.500343E+01 -1.963744E+00  8.511386E-02 -3.794316E+00
        20   4 -8.172208E-01  8.538209E+00  4.568224E+01  1.676558E+00  9.539169E-01 -6.918246E+00
        20   5 -2.838735E-01 -1.197190E+00  1.034958E+01  3.204307E-02 -1.915676E-01 -3.401470E+00
        20   6 -6.084057E-01 -1.972446E+00  1.054672E+01  1.110760E-01 -2.815829E-01 -4.239407E+00
        20   7 -6.325204E-01 -1.339277E+00  3.738984E+01 -3.570501E-01  1.503851E-01 -1.340491E-01
        20   8 -7.675761E-01 -2.179159E+00  3.767473E+01 -2.940686E-01  3.863127E-01  3.025108E-01
        21   1  2.316726E-01  3.607951E-01 -3.238689E+01  1.501560E-03  1.513335E-01 -1.596202E+00