
 displacements (vx,vy,vz) for set NALL and time  0.1000000E+01

         1  0.000000E+00  0.000000E+00  0.000000E+00
         2  0.000000E+00  0.000000E+00  0.000000E+00
         3  0.000000E+00  0.000000E+00  0.000000E+00
         4  0.000000E+00  0.000000E+00  0.000000E+00
         5  1.033467E-16  6.198461E-16  1.000000E-01
         6  1.033467E-16  5.522160E-16  1.000000E-01
         7  1.709768E-16  5.522160E-16  1.000000E-01
         8  1.709768E-16  6.198461E-16  1.000000E-01
         9  0.000000E+00  0.000000E+00  0.000000E+00
        10  0.000000E+00  0.000000E+00  0.000000E+00
        11  0.000000E+00  0.000000E+00  0.000000E+00
        12  0.000000E+00  0.000000E+00  0.000000E+00
        13  0.000000E+00  0.000000E+00  0.000000E+00
        14  0.000000E+00  0.000000E+00  0.000000E+00
        15  0.000000E+00  0.000000E+00  0.000000E+00
        16  0.000000E+00  0.000000E+00  0.000000E+00
        17  0.000000E+00  0.000000E+00  0.000000E+00
        18  0.000000E+00  0.000000E+00  0.000000E+00
        19  0.000000E+00  0.000000E+00  0.000000E+00
        20  0.000000E+00  0.000000E+00  0.000000E+00
        21  1.033467E-16  6.029386E-16  1.000000E-01
        22  1.033467E-16  5.860311E-16  1.000000E-01
        23  1.033467E-16  5.691235E-16  1.000000E-01
        24  1.202542E-16  5.522160E-16  1.000000E-01
        25  1.371617E-16  5.522160E-16  1.000000E-01
        26  1.540692E-16  5.522160E-16  1.000000E-01
        27  1.709768E-16  5.691235E-16  1.000000E-01
        28  1.709768E-16  5.860311E-16  1.000000E-01
        29  1.709768E-16  6.029386E-16  1.000000E-01
        30  1.540692E-16  6.198461E-16  1.000000E-01
        31  1.371617E-16  6.198461E-16  1.000000E-01
        32  1.202542E-16  6.198461E-16  1.000000E-01
        33 -2.110107E-03  2.110107E-03  6.089896E-03
        34 -1.594370E-03  1.594370E-03  1.211335E-02
        35 -1.945613E-03  1.945613E-03  1.848854E-02
        36 -1.847723E-03  1.847723E-03  2.474463E-02
        37 -1.915771E-03  1.915771E-03  3.108061E-02
        38 -1.893645E-03  1.893645E-03  3.738226E-02
        39 -1.911388E-03  1.911388E-03  4.369240E-02
        40 -1.900774E-03  1.900774E-03  5.000000E-02
        41 -1.911388E-03  1.911388E-03  5.630760E-02
        42 -1.893645E-03  1.893645E-03  6.261774E-02
        43 -1.915771E-03  1.915771E-03  6.891939E-02
        44 -1.847723E-03  1.847723E-03  7.525537E-02
        45 -1.945613E-03  1.945613E-03  8.151146E-02
        46 -1.594370E-03  1.594370E-03  8.788665E-02
        47 -2.110107E-03  2.110107E-03  9.391010E-02
        48  2.110107E-03  2.110107E-03  9.391010E-02
        49  1.594370E-03  1.594370E-03  8.788665E-02
        50  1.945613E-03  1.945613E-03  8.151146E-02
        51  1.847723E-03  1.847723E-03  7.525537E-02
        52  1.915771E-03  1.915771E-03  6.891939E-02
        53  1.893645E-03  1.893645E-03  6.261774E-02
        54  1.911388E-03  1.911388E-03  5.630760E-02
        55  1.900774E-03  1.900774E-03  5.000000E-02
        56  1.911388E-03  1.911388E-03  4.369240E-02
        57  1.893645E-03  1.893645E-03  3.738226E-02
        58  1.915771E-03  1.915771E-03  3.108061E-02
        59  1.847723E-03  1.847723E-03  2.474463E-02
        60  1.945613E-03  1.945613E-03  1.848854E-02
        61  1.594370E-03  1.594370E-03  1.211335E-02
        62  2.110107E-03  2.110107E-03  6.089896E-03
        63 -2.110107E-03 -2.110107E-03  6.089896E-03
        64 -1.594370E-03 -1.594370E-03  1.211335E-02
        65 -1.945613E-03 -1.945613E-03  1.848854E-02
        66 -1.847723E-03 -1.847723E-03  2.474463E-02
        67 -1.915771E-03 -1.915771E-03  3.108061E-02
        68 -1.893645E-03 -1.893645E-03  3.738226E-02
        69 -1.911388E-03 -1.911388E-03  4.369240E-02
        70 -1.900774E-03 -1.900774E-03  5.000000E-02
        71 -1.911388E-03 -1.911388E-03  5.630760E-02
        72 -1.893645E-03 -1.893645E-03  6.261774E-02
        73 -1.915771E-03 -1.915771E-03  6.891939E-02
        74 -1.847723E-03 -1.847723E-03  7.525537E-02
        75 -1.945613E-03 -1.945613E-03  8.151146E-02
        76 -1.594370E-03 -1.594370E-03  8.788665E-02
        77 -2.110107E-03 -2.110107E-03  9.391010E-02
        78  2.110107E-03 -2.110107E-03  6.089896E-03
        79  1.594370E-03 -1.594370E-03  1.211335E-02
        80  1.945613E-03 -1.945613E-03  1.848854E-02
        81  1.847723E-03 -1.847723E-03  2.474463E-02
        82  1.915771E-03 -1.915771E-03  3.108061E-02
        83  1.893645E-03 -1.893645E-03  3.738226E-02
        84  1.911388E-03 -1.911388E-03  4.369240E-02
        85  1.900774E-03 -1.900774E-03  5.000000E-02
        86  1.911388E-03 -1.911388E-03  5.630760E-02
        87  1.893645E-03 -1.893645E-03  6.261774E-02
        88  1.915771E-03 -1.915771E-03  6.891939E-02
        89  1.847723E-03 -1.847723E-03  7.525537E-02
        90  1.945613E-03 -1.945613E-03  8.151146E-02
        91  1.594370E-03 -1.594370E-03  8.788665E-02
        92  2.110107E-03 -2.110107E-03  9.391010E-02
        93  0.000000E+00  0.000000E+00  0.000000E+00
        94  0.000000E+00  0.000000E+00  0.000000E+00
        95  0.000000E+00  0.000000E+00  0.000000E+00
        96  0.000000E+00  0.000000E+00  0.000000E+00
        97  0.000000E+00  0.000000E+00  0.000000E+00
        98  1.202542E-16  5.860311E-16  1.000000E-01
        99  1.371617E-16  6.029386E-16  1.000000E-01
       100  1.371617E-16  5.860311E-16  1.000000E-01
       101  1.371617E-16  5.691235E-16  1.000000E-01
       102  1.540692E-16  5.860311E-16  1.000000E-01
       103 -6.477889E-18  2.110439E-03  5.787186E-03
       104  8.026352E-04  1.629386E-03  1.216099E-02
       105 -1.041493E-17  1.672031E-03  1.224660E-02
       106 -8.026352E-04  1.629386E-03  1.216099E-02
       107 -2.121424E-17  1.912524E-03  1.846232E-02
       108  9.203977E-04  1.873498E-03  2.476430E-02
       109 -1.927614E-17  1.897708E-03  2.477971E-02
       110 -9.203977E-04  1.873498E-03  2.476430E-02
       111 -1.882449E-17  1.902131E-03  3.107230E-02
       112  9.475044E-04  1.903614E-03  3.738422E-02
       113 -1.465325E-17  1.914217E-03  3.738829E-02
       114 -9.475044E-04  1.903614E-03  3.738422E-02
       115 -1.586696E-17  1.905636E-03  4.369192E-02
       116  9.499052E-04  1.906849E-03  5.000000E-02
       117  8.128375E-18  1.912666E-03  5.000000E-02
       118 -9.499052E-04  1.906849E-03  5.000000E-02
       119 -1.930467E-17  1.905636E-03  5.630808E-02
       120  9.475044E-04  1.903614E-03  6.261578E-02
       121 -1.063255E-17  1.914217E-03  6.261171E-02
       122 -9.475044E-04  1.903614E-03  6.261578E-02
       123  6.270145E-18  1.902131E-03  6.892770E-02
       124  9.203977E-04  1.873498E-03  7.523570E-02
       125  2.165452E-17  1.897708E-03  7.522029E-02
       126 -9.203977E-04  1.873498E-03  7.523570E-02
       127  4.708847E-17  1.912524E-03  8.153768E-02
       128  8.026352E-04  1.629386E-03  8.783901E-02
       129  7.474615E-17  1.672031E-03  8.775340E-02
       130 -8.026352E-04  1.629386E-03  8.783901E-02
       131  8.895178E-17  2.110439E-03  9.421281E-02
       132 -2.110439E-03 -7.311668E-19  5.787186E-03
       133 -1.629386E-03  8.026352E-04  1.216099E-02
       134 -1.672031E-03  1.071648E-17  1.224660E-02
       135 -1.629386E-03 -8.026352E-04  1.216099E-02
       136 -1.912524E-03  2.755014E-17  1.846232E-02
       137 -1.873498E-03  9.203977E-04  2.476430E-02
       138 -1.897708E-03  5.574587E-17  2.477971E-02
       139 -1.873498E-03 -9.203977E-04  2.476430E-02
       140 -1.902131E-03  9.370220E-17  3.107230E-02
       141 -1.903614E-03  9.475044E-04  3.738422E-02
       142 -1.914217E-03  1.469758E-16  3.738829E-02
       143 -1.903614E-03 -9.475044E-04  3.738422E-02
       144 -1.905636E-03  2.077488E-16  4.369192E-02
       145 -1.906849E-03  9.499052E-04  5.000000E-02
       146 -1.912666E-03  2.784169E-16  5.000000E-02
       147 -1.906849E-03 -9.499052E-04  5.000000E-02
       148 -1.905636E-03  2.884704E-16  5.630808E-02
       149 -1.903614E-03  9.475044E-04  6.261578E-02
       150 -1.914217E-03  3.328180E-16  6.261171E-02
       151 -1.903614E-03 -9.475044E-04  6.261578E-02
       152 -1.902131E-03  3.699900E-16  6.892770E-02
       153 -1.873498E-03  9.203977E-04  7.523570E-02
       154 -1.897708E-03  4.223744E-16  7.522029E-02
       155 -1.873498E-03 -9.203977E-04  7.523570E-02
       156 -1.912524E-03  4.534495E-16  8.153768E-02
       157 -1.629386E-03  8.026352E-04  8.783901E-02
       158 -1.672031E-03  4.973158E-16  8.775340E-02
       159 -1.629386E-03 -8.026352E-04  8.783901E-02
       160 -2.110439E-03  5.317050E-16  9.421281E-02
       161  3.815877E-18 -2.110439E-03  5.787186E-03
       162 -8.026352E-04 -1.629386E-03  1.216099E-02
       163  5.674690E-18 -1.672031E-03  1.224660E-02
       164  8.026352E-04 -1.629386E-03  1.216099E-02
       165  1.061673E-17 -1.912524E-03  1.846232E-02
       166 -9.203977E-04 -1.873498E-03  2.476430E-02
       167  1.808182E-17 -1.897708E-03  2.477971E-02
       168  9.203977E-04 -1.873498E-03  2.476430E-02
       169  3.419520E-17 -1.902131E-03  3.107230E-02
       170 -9.475044E-04 -1.903614E-03  3.738422E-02
       171  3.289794E-17 -1.914217E-03  3.738829E-02
       172  9.475044E-04 -1.903614E-03  3.738422E-02
       173  3.400094E-17 -1.905636E-03  4.369192E-02
       174 -9.499052E-04 -1.906849E-03  5.000000E-02
       175  4.527414E-17 -1.912666E-03  5.000000E-02
       176  9.499052E-04 -1.906849E-03  5.000000E-02
       177  5.186667E-17 -1.905636E-03  5.630808E-02
       178 -9.475044E-04 -1.903614E-03  6.261578E-02
       179  7.370964E-17 -1.914217E-03  6.261171E-02
       180  9.475044E-04 -1.903614E-03  6.261578E-02
       181  8.999061E-17 -1.902131E-03  6.892770E-02
       182 -9.203977E-04 -1.873498E-03  7.523570E-02
       183  1.102349E-16 -1.897708E-03  7.522029E-02
       184  9.203977E-04 -1.873498E-03  7.523570E-02
       185  1.526017E-16 -1.912524E-03  8.153768E-02
       186 -8.026352E-04 -1.629386E-03  8.783901E-02
       187  1.783744E-16 -1.672031E-03  8.775340E-02
       188  8.026352E-04 -1.629386E-03  8.783901E-02
       189  1.838100E-16 -2.110439E-03  9.421281E-02
       190  2.110439E-03  9.471079E-18  5.787186E-03
       191  1.629386E-03 -8.026352E-04  1.216099E-02
       192  1.672031E-03  3.092812E-17  1.224660E-02
       193  1.629386E-03  8.026352E-04  1.216099E-02
       194  1.912524E-03  5.417728E-17  1.846232E-02
       195  1.873498E-03 -9.203977E-04  2.476430E-02
       196  1.897708E-03  9.528963E-17  2.477971E-02
       197  1.873498E-03  9.203977E-04  2.476430E-02
       198  1.902131E-03  1.433414E-16  3.107230E-02
       199  1.903614E-03 -9.475044E-04  3.738422E-02
       200  1.914217E-03  1.959835E-16  3.738829E-02
       201  1.903614E-03  9.475044E-04  3.738422E-02
       202  1.905636E-03  2.507749E-16  4.369192E-02
       203  1.906849E-03 -9.499052E-04  5.000000E-02
       204  1.912666E-03  3.185261E-16  5.000000E-02
       205  1.906849E-03  9.499052E-04  5.000000E-02
       206  1.905636E-03  3.589585E-16  5.630808E-02
       207  1.903614E-03 -9.475044E-04  6.261578E-02
       208  1.914217E-03  4.108464E-16  6.261171E-02
       209  1.903614E-03  9.475044E-04  6.261578E-02
       210  1.902131E-03  4.533590E-16  6.892770E-02
       211  1.873498E-03 -9.203977E-04  7.523570E-02
       212  1.897708E-03  5.220480E-16  7.522029E-02
       213  1.873498E-03  9.203977E-04  7.523570E-02
       214  1.912524E-03  5.551920E-16  8.153768E-02
       215  1.629386E-03 -8.026352E-04  8.783901E-02
       216  1.672031E-03  5.946932E-16  8.775340E-02
       217  1.629386E-03  8.026352E-04  8.783901E-02
       218  2.110439E-03  6.336475E-16  9.421281E-02
       219 -2.045771E-18  6.506690E-18  5.469248E-03
       220 -5.429243E-18  8.363048E-04  1.230467E-02
       221  8.363048E-04  2.648037E-17  1.230467E-02
       222 -1.210979E-18  2.149237E-17  1.239756E-02
       223 -8.363048E-04  1.715946E-17  1.230467E-02
       224  2.332345E-18 -8.363048E-04  1.230467E-02
       225 -5.230514E-18  4.308285E-17  1.843788E-02
       226 -8.935185E-18  9.464226E-04  2.479106E-02
       227  9.464226E-04  8.507844E-17  2.479106E-02
       228  5.373739E-19  7.571486E-17  2.479971E-02
       229 -9.464226E-04  6.592271E-17  2.479106E-02
       230  9.560963E-18 -9.464226E-04  2.479106E-02
       231  3.474317E-18  1.209328E-16  3.107327E-02
       232 -1.002258E-18  9.573387E-04  3.738603E-02
       233  9.573387E-04  1.818454E-16  3.738603E-02
       234  1.123711E-17  1.662855E-16  3.738531E-02
       235 -9.573387E-04  1.577816E-16  3.738603E-02
       236  2.110055E-17 -9.573387E-04  3.738603E-02
       237  1.107913E-17  2.361985E-16  4.369325E-02
       238  1.487626E-17  9.561093E-04  5.000000E-02
       239  9.561093E-04  3.066596E-16  5.000000E-02
       240  2.069428E-17  2.948112E-16  5.000000E-02
       241 -9.561093E-04  2.864852E-16  5.000000E-02
       242  3.216355E-17 -9.561093E-04  5.000000E-02
       243  1.666871E-17  3.224511E-16  5.630675E-02
       244  6.900821E-18  9.573387E-04  6.261397E-02
       245  9.573387E-04  3.881915E-16  6.261397E-02
       246  2.502434E-17  3.649818E-16  6.261469E-02
       247 -9.573387E-04  3.484742E-16  6.261397E-02
       248  4.942303E-17 -9.573387E-04  6.261397E-02
       249  4.781828E-17  4.117461E-16  6.892673E-02
       250  4.172256E-17  9.464226E-04  7.520894E-02
       251  9.464226E-04  5.007442E-16  7.520894E-02
       252  6.091327E-17  4.759050E-16  7.520029E-02
       253 -9.464226E-04  4.489874E-16  7.520894E-02
       254  8.647105E-17 -9.464226E-04  7.520894E-02
       255  1.013922E-16  5.035202E-16  8.156212E-02
       256  1.014542E-16  8.363048E-04  8.769533E-02
       257  8.363048E-04  5.760966E-16  8.769533E-02
       258  1.234216E-16  5.561457E-16  8.760244E-02
       259 -8.363048E-04  5.259827E-16  8.769533E-02
       260  1.476007E-16 -8.363048E-04  8.769533E-02
       261  1.357660E-16  5.772779E-16  9.453075E-02
       262 -4.923623E-17  2.526403E-17 -6.763008E-17
       263  1.371617E-16  5.860311E-16  1.000000E-01

 forces (fx,fy,fz) for set NALL and time  0.1000000E+01

         1 -1.533370E+01 -1.533370E+01  2.577818E+01
         2  1.533370E+01 -1.533370E+01  2.577818E+01
         3  1.533370E+01  1.533370E+01  2.577818E+01
         4 -1.533370E+01  1.533370E+01  2.577818E+01
         5 -1.533370E+01 -1.533370E+01 -2.577818E+01
         6  1.533370E+01 -1.533370E+01 -2.577818E+01
         7  1.533370E+01  1.533370E+01 -2.577818E+01
         8 -1.533370E+01  1.533370E+01 -2.577818E+01
         9  1.246402E+00 -5.511873E+01 -2.195153E+02
        10 -1.083855E-14 -2.652625E+01  6.837639E+01
        11 -1.246402E+00 -5.511873E+01 -2.195153E+02
        12  5.511873E+01  1.246402E+00 -2.195153E+02
        13  2.652625E+01 -1.117231E-13  6.837639E+01
        14  5.511873E+01 -1.246402E+00 -2.195153E+02
        15 -1.246402E+00  5.511873E+01 -2.195153E+02
        16  2.748496E-14  2.652625E+01  6.837639E+01
        17  1.246402E+00  5.511873E+01 -2.195153E+02
        18 -5.511873E+01 -1.246402E+00 -2.195153E+02
        19 -2.652625E+01 -9.192300E-15  6.837639E+01
        20 -5.511873E+01  1.246402E+00 -2.195153E+02
        21  1.246402E+00 -5.511873E+01  2.195153E+02
        22  1.270213E-12 -2.652625E+01 -6.837639E+01
        23 -1.246402E+00 -5.511873E+01  2.195153E+02
        24  5.511873E+01  1.246402E+00  2.195153E+02
        25  2.652625E+01  6.250209E-15 -6.837639E+01
        26  5.511873E+01 -1.246402E+00  2.195153E+02
        27 -1.246402E+00  5.511873E+01  2.195153E+02
        28 -1.532637E-12  2.652625E+01 -6.837639E+01
        29  1.246402E+00  5.511873E+01  2.195153E+02
        30 -5.511873E+01 -1.246402E+00  2.195153E+02
        31 -2.652625E+01  1.539687E-12 -6.837639E+01
        32 -5.511873E+01  1.246402E+00  2.195153E+02
        33  5.442095E-05 -5.442095E-05 -1.762381E-06
        34 -2.079565E-06  2.079565E-06 -7.844733E-06
        35  8.555711E-05 -8.555711E-05 -3.511934E-06
        36 -3.966444E-05  3.966444E-05  4.770178E-07
        37  9.634687E-05 -9.634687E-05 -1.678494E-07
        38 -4.752477E-05  4.752477E-05  7.205449E-07
        39  9.801279E-05 -9.801279E-05 -4.536527E-07
        40 -4.873198E-05  4.873198E-05 -2.983169E-13
        41  9.801279E-05 -9.801279E-05  4.536535E-07
        42 -4.752477E-05  4.752477E-05 -7.205446E-07
        43  9.634687E-05 -9.634687E-05  1.678479E-07
        44 -3.966444E-05  3.966444E-05 -4.770174E-07
        45  8.555711E-05 -8.555711E-05  3.511933E-06
        46 -2.079565E-06  2.079566E-06  7.844734E-06
        47  5.442095E-05 -5.442095E-05  1.762383E-06
        48 -5.442095E-05 -5.442095E-05  1.762380E-06
        49  2.079567E-06  2.079567E-06  7.844733E-06
        50 -8.555711E-05 -8.555711E-05  3.511935E-06
        51  3.966444E-05  3.966444E-05 -4.770190E-07
        52 -9.634687E-05 -9.634687E-05  1.678467E-07
        53  4.752477E-05  4.752477E-05 -7.205440E-07
        54 -9.801279E-05 -9.801279E-05  4.536536E-07
        55  4.873198E-05  4.873198E-05  5.146161E-13
        56 -9.801279E-05 -9.801279E-05 -4.536541E-07
        57  4.752477E-05  4.752477E-05  7.205452E-07
        58 -9.634687E-05 -9.634687E-05 -1.678488E-07
        59  3.966444E-05  3.966444E-05  4.770179E-07
        60 -8.555711E-05 -8.555711E-05 -3.511934E-06
        61  2.079565E-06  2.079565E-06 -7.844733E-06
        62 -5.442095E-05 -5.442095E-05 -1.762381E-06
        63  5.442095E-05  5.442095E-05 -1.762381E-06
        64 -2.079565E-06 -2.079565E-06 -7.844733E-06
        65  8.555711E-05  8.555711E-05 -3.511934E-06
        66 -3.966444E-05 -3.966444E-05  4.770185E-07
        67  9.634687E-05  9.634687E-05 -1.678490E-07
        68 -4.752477E-05 -4.752477E-05  7.205453E-07
        69  9.801279E-05  9.801279E-05 -4.536543E-07
        70 -4.873198E-05 -4.873198E-05  1.930234E-12
        71  9.801279E-05  9.801279E-05  4.536531E-07
        72 -4.752477E-05 -4.752477E-05 -7.205427E-07
        73  9.634687E-05  9.634687E-05  1.678479E-07
        74 -3.966444E-05 -3.966444E-05 -4.770170E-07
        75  8.555711E-05  8.555711E-05  3.511937E-06
        76 -2.079567E-06 -2.079566E-06  7.844733E-06
        77  5.442095E-05  5.442095E-05  1.762383E-06
        78 -5.442095E-05  5.442095E-05 -1.762381E-06
        79  2.079565E-06 -2.079565E-06 -7.844734E-06
        80 -8.555711E-05  8.555711E-05 -3.511933E-06
        81  3.966444E-05 -3.966444E-05  4.770177E-07
        82 -9.634687E-05  9.634687E-05 -1.678488E-07
        83  4.752477E-05 -4.752477E-05  7.205439E-07
        84 -9.801279E-05  9.801279E-05 -4.536519E-07
        85  4.873198E-05 -4.873198E-05 -1.196265E-13
        86 -9.801279E-05  9.801279E-05  4.536528E-07
        87  4.752477E-05 -4.752477E-05 -7.205461E-07
        88 -9.634687E-05  9.634687E-05  1.678501E-07
        89  3.966444E-05 -3.966444E-05 -4.770180E-07
        90 -8.555711E-05  8.555711E-05  3.511935E-06
        91  2.079566E-06 -2.079564E-06  7.844733E-06
        92 -5.442095E-05  5.442095E-05  1.762380E-06
        93  3.912148E-14  1.862132E+00 -3.723919E+02
        94  1.862132E+00 -1.278665E-14 -3.723919E+02
        95 -2.877039E-14 -2.554935E-13  1.693164E+02
        96 -1.862132E+00  1.219181E-13 -3.723919E+02
        97 -6.099635E-14 -1.862132E+00 -3.723919E+02
        98 -5.359602E-14  1.862132E+00  3.723919E+02
        99  1.862132E+00 -1.013849E-12  3.723919E+02
       100 -6.048634E-13  1.014962E-12 -1.693164E+02
       101 -1.862132E+00 -3.502892E-13  3.723919E+02
       102 -2.339448E-13 -1.862132E+00  3.723919E+02
       103  3.257984E-14 -7.978912E-05 -3.829842E-05
       104  2.336038E-05 -1.967637E-04  1.038031E-05
       105  4.328287E-14 -7.542816E-06  2.001228E-06
       106 -2.336038E-05 -1.967637E-04  1.038031E-05
       107 -2.691917E-13 -1.804253E-04  1.020824E-06
       108  2.807624E-06 -1.959173E-04  3.292741E-07
       109 -2.017947E-13  8.634156E-05 -6.308772E-08
       110 -2.807623E-06 -1.959173E-04  3.292746E-07
       111  2.546777E-13 -1.957625E-04 -2.457151E-07
       112  9.232429E-07 -1.964551E-04  1.153122E-07
       113  3.041363E-15  9.773538E-05  6.232618E-07
       114 -9.232435E-07 -1.964551E-04  1.153127E-07
       115 -2.027017E-13 -1.977758E-04 -6.233920E-08
       116 -7.429128E-08 -1.974092E-04 -2.398359E-13
       117  3.716560E-14  9.908391E-05  7.469581E-13
       118  7.429212E-08 -1.974092E-04  3.627376E-13
       119 -5.512259E-13 -1.977758E-04  6.233885E-08
       120  9.232415E-07 -1.964551E-04 -1.153145E-07
       121  1.199355E-12  9.773538E-05 -6.232600E-07
       122 -9.232442E-07 -1.964551E-04 -1.153110E-07
       123  5.653570E-13 -1.957625E-04  2.457128E-07
       124  2.807624E-06 -1.959173E-04 -3.292761E-07
       125 -2.922306E-13  8.634155E-05  6.308760E-08
       126 -2.807624E-06 -1.959173E-04 -3.292737E-07
       127  8.844817E-13 -1.804253E-04 -1.020823E-06
       128  2.336037E-05 -1.967637E-04 -1.038031E-05
       129  2.717201E-13 -7.542816E-06 -2.001228E-06
       130 -2.336038E-05 -1.967637E-04 -1.038031E-05
       131  1.980777E-13 -7.978912E-05  3.829842E-05
       132  7.978912E-05 -9.513224E-15 -3.829842E-05
       133  1.967637E-04  2.336038E-05  1.038031E-05
       134  7.542816E-06 -1.520156E-13  2.001228E-06
       135  1.967637E-04 -2.336038E-05  1.038031E-05
       136  1.804253E-04  1.370414E-13  1.020824E-06
       137  1.959173E-04  2.807623E-06  3.292740E-07
       138 -8.634155E-05 -1.165523E-13 -6.308743E-08
       139  1.959173E-04 -2.807623E-06  3.292740E-07
       140  1.957625E-04 -2.591954E-13 -2.457150E-07
       141  1.964551E-04  9.232438E-07  1.153123E-07
       142 -9.773538E-05 -4.259020E-13  6.232625E-07
       143  1.964551E-04 -9.232426E-07  1.153118E-07
       144  1.977758E-04 -3.132191E-13 -6.233916E-08
       145  1.974092E-04 -7.429132E-08 -1.667555E-13
       146 -9.908391E-05 -3.368517E-13  1.320888E-12
       147  1.974092E-04  7.429164E-08 -9.067191E-13
       148  1.977758E-04 -4.709189E-14  6.233801E-08
       149  1.964551E-04  9.232427E-07 -1.153140E-07
       150 -9.773538E-05  8.170600E-13 -6.232580E-07
       151  1.964551E-04 -9.232448E-07 -1.153140E-07
       152  1.957625E-04  1.166899E-12  2.457116E-07
       153  1.959173E-04  2.807623E-06 -3.292732E-07
       154 -8.634155E-05  6.582616E-13  6.308753E-08
       155  1.959173E-04 -2.807624E-06 -3.292771E-07
       156  1.804253E-04 -1.029496E-12 -1.020823E-06
       157  1.967637E-04  2.336038E-05 -1.038031E-05
       158  7.542814E-06 -2.910033E-13 -2.001229E-06
       159  1.967637E-04 -2.336038E-05 -1.038031E-05
       160  7.978912E-05  1.027872E-12  3.829842E-05
       161  6.461498E-14  7.978912E-05 -3.829842E-05
       162 -2.336038E-05  1.967637E-04  1.038031E-05
       163 -5.175461E-14  7.542816E-06  2.001228E-06
       164  2.336038E-05  1.967637E-04  1.038031E-05
       165 -1.532836E-13  1.804253E-04  1.020824E-06
       166 -2.807623E-06  1.959173E-04  3.292741E-07
       167  1.167282E-13 -8.634155E-05 -6.308723E-08
       168  2.807623E-06  1.959173E-04  3.292737E-07
       169  5.945644E-13  1.957625E-04 -2.457143E-07
       170 -9.232439E-07  1.964551E-04  1.153119E-07
       171  2.433876E-13 -9.773538E-05  6.232617E-07
       172  9.232440E-07  1.964551E-04  1.153128E-07
       173 -5.682131E-13  1.977758E-04 -6.233946E-08
       174  7.429045E-08  1.974092E-04 -3.457234E-13
       175  6.745896E-13 -9.908391E-05  3.829159E-13
       176 -7.429148E-08  1.974092E-04 -1.077916E-12
       177  2.951051E-13  1.977758E-04  6.233813E-08
       178 -9.232427E-07  1.964551E-04 -1.153132E-07
       179 -4.625532E-13 -9.773538E-05 -6.232620E-07
       180  9.232434E-07  1.964551E-04 -1.153127E-07
       181  2.950955E-13  1.957625E-04  2.457148E-07
       182 -2.807624E-06  1.959173E-04 -3.292756E-07
       183 -8.097863E-13 -8.634155E-05  6.308906E-08
       184  2.807624E-06  1.959173E-04 -3.292760E-07
       185  1.566212E-13  1.804253E-04 -1.020823E-06
       186 -2.336037E-05  1.967637E-04 -1.038031E-05
       187 -1.333558E-12  7.542818E-06 -2.001228E-06
       188  2.336038E-05  1.967637E-04 -1.038031E-05
       189  7.628204E-13  7.978912E-05  3.829842E-05
       190 -7.978912E-05  2.448909E-14 -3.829842E-05
       191 -1.967637E-04 -2.336038E-05  1.038031E-05
       192 -7.542816E-06  3.938950E-13  2.001228E-06
       193 -1.967637E-04  2.336038E-05  1.038031E-05
       194 -1.804253E-04  2.700035E-13  1.020823E-06
       195 -1.959173E-04 -2.807623E-06  3.292736E-07
       196  8.634155E-05 -1.547203E-13 -6.308702E-08
       197 -1.959173E-04  2.807623E-06  3.292733E-07
       198 -1.957625E-04  1.570267E-13 -2.457151E-07
       199 -1.964551E-04 -9.232431E-07  1.153130E-07
       200  9.773538E-05  1.712957E-13  6.232611E-07
       201 -1.964551E-04  9.232427E-07  1.153126E-07
       202 -1.977758E-04 -6.874371E-13 -6.233849E-08
       203 -1.974092E-04  7.429213E-08  7.521761E-14
       204  9.908391E-05  1.030440E-12 -2.624290E-13
       205 -1.974092E-04 -7.429250E-08 -8.313628E-13
       206 -1.977758E-04 -8.211478E-13  6.234070E-08
       207 -1.964551E-04 -9.232441E-07 -1.153096E-07
       208  9.773538E-05  1.310498E-12 -6.232625E-07
       209 -1.964551E-04  9.232413E-07 -1.153136E-07
       210 -1.957625E-04 -2.612385E-13  2.457124E-07
       211 -1.959173E-04 -2.807622E-06 -3.292747E-07
       212  8.634155E-05  2.628037E-13  6.308603E-08
       213 -1.959173E-04  2.807622E-06 -3.292738E-07
       214 -1.804253E-04 -1.225248E-13 -1.020818E-06
       215 -1.967637E-04 -2.336038E-05 -1.038030E-05
       216 -7.542815E-06  1.545146E-12 -2.001231E-06
       217 -1.967637E-04  2.336038E-05 -1.038030E-05
       218 -7.978912E-05 -6.395579E-13  3.829842E-05
       219 -3.795922E-14  6.347874E-14 -1.455526E-04
       220  5.089418E-14  5.551815E-05  2.878493E-05
       221  5.551815E-05  2.060127E-13  2.878493E-05
       222  2.649049E-13  1.497882E-13  3.442114E-05
       223 -5.551815E-05  1.204696E-13  2.878493E-05
       224 -2.683288E-13 -5.551815E-05  2.878493E-05
       225 -1.952275E-13  4.845460E-13  1.314493E-05
       226  2.702985E-13  5.794968E-06  4.515530E-06
       227  5.794968E-06  1.164398E-13  4.515529E-06
       228  1.763406E-14 -1.556283E-13 -5.679738E-06
       229 -5.794968E-06  1.764993E-13  4.515530E-06
       230  1.218522E-13 -5.794968E-06  4.515530E-06
       231  4.622583E-13  1.746270E-15  2.123910E-06
       232  3.320265E-14  1.419883E-06 -9.859892E-07
       233  1.419884E-06 -4.598228E-13 -9.859887E-07
       234  6.116096E-14 -2.498304E-13 -1.452032E-06
       235 -1.419883E-06 -1.445862E-14 -9.859908E-07
       236  5.691069E-13 -1.419882E-06 -9.859901E-07
       237 -3.623448E-13 -5.752399E-14  1.864285E-06
       238  3.930062E-13 -4.581937E-07 -1.717682E-12
       239 -4.581916E-07 -2.056826E-13  4.604928E-13
       240 -4.263951E-13  5.238939E-13  5.495882E-13
       241  4.581932E-07 -5.273472E-13 -1.611183E-12
       242 -1.359762E-13  4.581932E-07 -9.059975E-13
       243 -4.103993E-13 -8.790561E-13 -1.864284E-06
       244  3.125332E-14  1.419881E-06  9.859902E-07
       245  1.419883E-06 -1.571741E-12  9.859894E-07
       246 -7.768970E-13  1.311837E-12  1.452034E-06
       247 -1.419881E-06 -8.483897E-13  9.859909E-07
       248  1.030602E-12 -1.419885E-06  9.859919E-07
       249  1.180178E-12 -3.168172E-13 -2.123909E-06
       250  1.695044E-12  5.794967E-06 -4.515531E-06
       251  5.794972E-06  1.448762E-12 -4.515530E-06
       252 -2.535163E-12  1.452565E-12  5.679741E-06
       253 -5.794968E-06 -8.898186E-13 -4.515532E-06
       254 -3.566479E-13 -5.794968E-06 -4.515531E-06
       255  7.421798E-13 -7.216719E-13 -1.314493E-05
       256  4.223011E-14  5.551814E-05 -2.878493E-05
       257  5.551815E-05  1.686082E-13 -2.878493E-05
       258 -2.028287E-12  3.407760E-12 -3.442114E-05
       259 -5.551814E-05 -8.684720E-14 -2.878493E-05
       260 -1.170557E-12 -5.551815E-05 -2.878493E-05
       261 -3.882381E-13 -6.745576E-13  1.455526E-04
       262  1.946887E-12  1.218133E-12  3.511376E-13
       263 -1.777599E-12  1.158407E-12  2.699756E+03

 stresses (elem, integ.pnt.,sxx,syy,szz,sxy,sxz,syz) for set EALL and time  0.1000000E+01

         1   1  4.691409E+02  4.691409E+02  2.838017E+03 -1.134940E+00  2.670241E+02  2.670241E+02
         1   2  4.144992E+02  4.188962E+02  2.713226E+03 -1.109986E+00  4.695011E+01  2.649399E+02
         1   3  4.188962E+02  4.144992E+02  2.713226E+03 -1.109986E+00  2.649399E+02  4.695011E+01
         1   4  3.650428E+02  3.650428E+02  2.586309E+03 -6.323768E-01  4.534730E+01  4.534730E+01
         1   5 -1.985242E+02 -1.985242E+02  2.559507E+03  6.568579E+00 -1.206985E+02 -1.206985E+02
         1   6 -1.436292E+02 -1.466147E+02  2.719959E+03  5.496385E+00 -4.206085E+01 -1.146599E+02
         1   7 -1.466147E+02 -1.436292E+02  2.719959E+03  5.496385E+00 -1.146599E+02 -4.206085E+01
         1   8 -8.011918E+01 -8.011918E+01  2.893229E+03  2.015148E+00 -4.106581E+01 -4.106581E+01
         2   1  4.144992E+02  4.188962E+02  2.713226E+03  1.109986E+00 -4.695011E+01  2.649399E+02
         2   2  4.691409E+02  4.691409E+02  2.838017E+03  1.134940E+00 -2.670241E+02  2.670241E+02
         2   3  3.650428E+02  3.650428E+02  2.586309E+03  6.323768E-01 -4.534730E+01  4.534730E+01
         2   4  4.188962E+02  4.144992E+02  2.713226E+03  1.109986E+00 -2.649399E+02  4.695011E+01
         2   5 -1.436292E+02 -1.466147E+02  2.719959E+03 -5.496385E+00  4.206085E+01 -1.146599E+02
         2   6 -1.985242E+02 -1.985242E+02  2.559507E+03 -6.568579E+00  1.206985E+02 -1.206985E+02
         2   7 -8.011918E+01 -8.011918E+01  2.893229E+03 -2.015148E+00  4.106581E+01 -4.106581E+01
         2   8 -1.466147E+02 -1.436292E+02  2.719959E+03 -5.496385E+00  1.146599E+02 -4.206085E+01
         3   1  4.188962E+02  4.144992E+02  2.713226E+03  1.109986E+00  2.649399E+02 -4.695011E+01
         3   2  3.650428E+02  3.650428E+02  2.586309E+03  6.323768E-01  4.534730E+01 -4.534730E+01
         3   3  4.691409E+02  4.691409E+02  2.838017E+03  1.134940E+00  2.670241E+02 -2.670241E+02