
 displacements (vx,vy,vz) for set NALL and time  0.1000000E+01

         1  0.000000E+00  0.000000E+00  0.000000E+00
         2 -1.030068E-04  1.886663E-04  8.490308E-05
         3 -1.098435E-04  1.369593E-04  1.526681E-04
         4  0.000000E+00  0.000000E+00  0.000000E+00
         5  0.000000E+00  0.000000E+00  0.000000E+00
         6 -4.367638E-05  1.758150E-04  1.053926E-04
         7 -5.438690E-05  1.152302E-04  1.744424E-04
         8  0.000000E+00  0.000000E+00  0.000000E+00
         9 -9.358469E-05  3.214478E-04  2.004251E-04
        10 -1.070418E-04  2.761384E-04  2.851705E-04
        11 -4.531259E-05  3.044649E-04  2.003846E-04
        12 -5.855039E-05  2.515172E-04  2.850923E-04
        13 -9.366892E-05  5.209299E-04  2.889522E-04
        14 -1.046607E-04  4.721847E-04  4.055732E-04
        15 -4.198126E-05  5.027924E-04  2.884060E-04
        16 -5.478713E-05  4.473311E-04  4.047932E-04
        17 -9.320857E-05  7.901105E-04  3.726355E-04
        18 -1.044444E-04  7.423750E-04  5.251476E-04
        19 -4.211649E-05  7.724595E-04  3.725563E-04
        20 -5.485976E-05  7.177121E-04  5.251270E-04
        21 -9.330609E-05  1.130501E-03  4.579031E-04
        22 -1.045587E-04  1.082603E-03  6.454951E-04
        23 -4.218136E-05  1.112782E-03  4.579352E-04
        24 -5.495725E-05  1.057926E-03  6.455239E-04
        25 -9.331114E-05  1.540546E-03  5.432807E-04
        26 -1.045707E-04  1.492675E-03  7.657892E-04
        27 -4.219116E-05  1.522841E-03  5.432825E-04
        28 -5.496311E-05  1.467995E-03  7.657916E-04
        29 -9.331074E-05  2.020524E-03  6.286132E-04
        30 -1.045643E-04  1.972646E-03  8.860817E-04
        31 -4.218676E-05  2.002814E-03  6.286124E-04
        32 -5.495845E-05  1.947966E-03  8.860801E-04
        33 -9.330957E-05  2.570423E-03  7.139392E-04
        34 -1.045646E-04  2.522546E-03  1.006369E-03
        35 -4.218651E-05  2.552713E-03  7.139390E-04
        36 -5.495831E-05  2.497866E-03  1.006369E-03
        37 -9.330985E-05  3.190245E-03  7.992670E-04
        38 -1.045646E-04  3.142368E-03  1.126658E-03
        39 -4.218668E-05  3.172535E-03  7.992670E-04
        40 -5.495846E-05  3.117688E-03  1.126659E-03
        41 -9.330963E-05  3.879989E-03  8.845951E-04
        42 -1.045648E-04  3.832111E-03  1.246947E-03
        43 -4.218666E-05  3.862279E-03  8.845950E-04
        44 -5.495854E-05  3.807432E-03  1.246947E-03
        45 -9.331059E-05  4.639652E-03  9.699233E-04
        46 -1.045639E-04  4.591777E-03  1.367237E-03
        47 -4.218684E-05  4.621944E-03  9.699239E-04
        48 -5.495822E-05  4.567097E-03  1.367236E-03
        49 -9.330818E-05  5.469252E-03  1.055245E-03
        50 -1.045656E-04  5.421368E-03  1.487528E-03
        51 -4.218497E-05  5.451537E-03  1.055242E-03
        52 -5.495824E-05  5.396687E-03  1.487532E-03
        53 -9.329506E-05  6.368743E-03  1.140615E-03
        54 -1.045778E-04  6.320863E-03  1.607766E-03
        55 -4.219508E-05  6.351049E-03  1.140629E-03
        56 -5.496776E-05  6.296190E-03  1.607758E-03
        57 -9.351481E-05  7.337932E-03  1.225823E-03
        58 -1.044612E-04  7.290286E-03  1.728373E-03
        59 -4.219092E-05  7.320260E-03  1.225779E-03
        60 -5.489982E-05  7.265611E-03  1.728347E-03
        61 -9.222986E-05  8.379696E-03  1.310567E-03
        62 -1.047990E-04  8.330368E-03  1.848196E-03
        63 -4.194603E-05  8.361522E-03  1.310538E-03
        64 -5.512375E-05  8.305436E-03  1.848448E-03
        65 -9.260390E-05  9.481273E-03  1.406746E-03
        66 -1.069545E-04  9.435080E-03  1.960187E-03
        67 -4.233448E-05  9.462570E-03  1.406556E-03
        68 -5.567486E-05  9.410248E-03  1.958523E-03
        69  0.000000E+00  0.000000E+00  0.000000E+00
        70 -7.199563E-17  1.686913E-04  1.098683E-04
        71 -7.488253E-17  1.087905E-04  1.784362E-04
        72  0.000000E+00  0.000000E+00  0.000000E+00
        73 -2.864801E-16  2.945444E-04  2.034698E-04
        74 -2.793997E-16  2.425510E-04  2.880734E-04
        75 -6.175590E-16  4.927758E-04  2.876273E-04
        76 -5.988480E-16  4.381171E-04  4.040512E-04
        77 -1.053395E-15  7.622478E-04  3.725701E-04
        78 -1.023113E-15  7.084731E-04  5.251076E-04
        79 -1.582436E-15  1.102697E-03  4.579339E-04
        80 -1.540963E-15  1.048742E-03  6.455381E-04
        81 -2.192826E-15  1.512727E-03  5.432885E-04
        82 -2.141628E-15  1.458799E-03  7.657934E-04
        83 -2.874482E-15  1.992704E-03  6.286112E-04
        84 -2.814070E-15  1.938771E-03  8.860799E-04
        85 -3.614325E-15  2.542603E-03  7.139390E-04
        86 -3.545392E-15  2.488671E-03  1.006369E-03
        87 -4.405615E-15  3.162425E-03  7.992670E-04
        88 -4.327288E-15  3.108493E-03  1.126659E-03
        89 -5.233105E-15  3.852169E-03  8.845950E-04
        90 -5.148663E-15  3.798237E-03  1.246947E-03
        91 -6.084753E-15  4.611833E-03  9.699237E-04
        92 -5.994732E-15  4.557903E-03  1.367236E-03
        93 -6.950393E-15  5.441427E-03  1.055246E-03
        94 -6.861262E-15  5.387490E-03  1.487534E-03
        95 -7.835228E-15  6.340945E-03  1.140608E-03
        96 -7.742409E-15  6.287006E-03  1.607749E-03
        97 -8.735016E-15  7.310104E-03  1.225849E-03
        98 -8.637862E-15  7.256377E-03  1.728381E-03
        99 -9.630968E-15  8.351494E-03  1.310413E-03
       100 -9.532089E-15  8.296263E-03  1.848375E-03
       101 -1.052858E-14  9.452576E-03  1.407184E-03
       102 -1.042797E-14  9.401089E-03  1.957708E-03
       103  0.000000E+00  0.000000E+00  0.000000E+00
       104  4.367638E-05  1.758150E-04  1.053926E-04
       105  5.438690E-05  1.152302E-04  1.744424E-04
       106  0.000000E+00  0.000000E+00  0.000000E+00
       107  4.531259E-05  3.044649E-04  2.003846E-04
       108  5.855039E-05  2.515172E-04  2.850923E-04
       109  4.198126E-05  5.027924E-04  2.884060E-04
       110  5.478713E-05  4.473311E-04  4.047932E-04
       111  4.211649E-05  7.724595E-04  3.725563E-04
       112  5.485976E-05  7.177121E-04  5.251270E-04
       113  4.218136E-05  1.112782E-03  4.579352E-04
       114  5.495725E-05  1.057926E-03  6.455239E-04
       115  4.219116E-05  1.522841E-03  5.432825E-04
       116  5.496311E-05  1.467995E-03  7.657916E-04
       117  4.218676E-05  2.002814E-03  6.286124E-04
       118  5.495845E-05  1.947966E-03  8.860801E-04
       119  4.218651E-05  2.552713E-03  7.139390E-04
       120  5.495831E-05  2.497866E-03  1.006369E-03
       121  4.218668E-05  3.172535E-03  7.992670E-04
       122  5.495846E-05  3.117688E-03  1.126659E-03
       123  4.218666E-05  3.862279E-03  8.845950E-04
       124  5.495854E-05  3.807432E-03  1.246947E-03
       125  4.218684E-05  4.621944E-03  9.699239E-04
       126  5.495822E-05  4.567097E-03  1.367236E-03
       127  4.218497E-05  5.451537E-03  1.055242E-03
       128  5.495824E-05  5.396687E-03  1.487532E-03
       129  4.219508E-05  6.351049E-03  1.140629E-03
       130  5.496776E-05  6.296190E-03  1.607758E-03
       131  4.219092E-05  7.320260E-03  1.225779E-03
       132  5.489982E-05  7.265611E-03  1.728347E-03
       133  4.194603E-05  8.361522E-03  1.310538E-03
       134  5.512375E-05  8.305436E-03  1.848448E-03
       135  4.233448E-05  9.462570E-03  1.406556E-03
       136  5.567486E-05  9.410248E-03  1.958523E-03
       137  0.000000E+00  0.000000E+00  0.000000E+00
       138  1.030068E-04  1.886663E-04  8.490308E-05
       139  1.098435E-04  1.369593E-04  1.526681E-04
       140  0.000000E+00  0.000000E+00  0.000000E+00
       141  9.358469E-05  3.214478E-04  2.004251E-04
       142  1.070418E-04  2.761384E-04  2.851705E-04
       143  9.366892E-05  5.209299E-04  2.889522E-04
       144  1.046607E-04  4.721847E-04  4.055732E-04
       145  9.320857E-05  7.901105E-04  3.726355E-04
       146  1.044444E-04  7.423750E-04  5.251476E-04
       147  9.330609E-05  1.130501E-03  4.579031E-04
       148  1.045587E-04  1.082603E-03  6.454951E-04
       149  9.331114E-05  1.540546E-03  5.432807E-04
       150  1.045707E-04  1.492675E-03  7.657892E-04
       151  9.331074E-05  2.020524E-03  6.286132E-04
       152  1.045643E-04  1.972646E-03  8.860817E-04
       153  9.330957E-05  2.570423E-03  7.139392E-04
       154  1.045646E-04  2.522546E-03  1.006369E-03
       155  9.330985E-05  3.190245E-03  7.992670E-04
       156  1.045646E-04  3.142368E-03  1.126658E-03
       157  9.330963E-05  3.879989E-03  8.845951E-04
       158  1.045648E-04  3.832111E-03  1.246947E-03
       159  9.331059E-05  4.639652E-03  9.699233E-04
       160  1.045639E-04  4.591777E-03  1.367237E-03
       161  9.330818E-05  5.469252E-03  1.055245E-03
       162  1.045656E-04  5.421368E-03  1.487528E-03
       163  9.329506E-05  6.368743E-03  1.140615E-03
       164  1.045778E-04  6.320863E-03  1.607766E-03
       165  9.351481E-05  7.337932E-03  1.225823E-03
       166  1.044612E-04  7.290286E-03  1.728373E-03
       167  9.222986E-05  8.379696E-03  1.310567E-03
       168  1.047990E-04  8.330368E-03  1.848196E-03
       169  9.260390E-05  9.481273E-03  1.406746E-03
       170  1.069545E-04  9.435080E-03  1.960187E-03
       171 -1.663425E-04  1.118457E-04  2.054968E-04
       172  0.000000E+00  0.000000E+00  0.000000E+00
       173 -7.741467E-05  8.352659E-05  2.347167E-04
       174  0.000000E+00  0.000000E+00  0.000000E+00
       175 -1.578501E-04  2.355498E-04  3.705451E-04
       176 -8.235583E-05  2.054558E-04  3.701528E-04
       177 -1.556175E-04  4.373599E-04  5.225185E-04
       178 -7.734606E-05  4.068762E-04  5.216019E-04
       179 -1.549770E-04  7.073997E-04  6.777564E-04
       180 -7.749932E-05  6.771100E-04  6.777078E-04
       181 -1.552762E-04  1.047516E-03  8.330318E-04
       182 -7.762612E-05  1.017207E-03  8.330834E-04
       183 -1.552508E-04  1.457579E-03  9.883056E-04
       184 -7.763119E-05  1.427270E-03  9.883026E-04
       185 -1.552511E-04  1.937557E-03  1.143550E-03
       186 -7.762465E-05  1.907247E-03  1.143549E-03
       187 -1.552495E-04  2.487456E-03  1.298800E-03
       188 -7.762486E-05  2.457147E-03  1.298800E-03
       189 -1.552500E-04  3.107278E-03  1.454050E-03
       190 -7.762499E-05  3.076969E-03  1.454050E-03
       191 -1.552500E-04  3.797022E-03  1.609300E-03
       192 -7.762501E-05  3.766712E-03  1.609300E-03
       193 -1.552500E-04  4.556688E-03  1.764550E-03
       194 -7.762500E-05  4.526378E-03  1.764550E-03
       195 -1.552500E-04  5.386278E-03  1.919800E-03
       196 -7.762500E-05  5.355970E-03  1.919800E-03
       197 -1.552500E-04  6.285737E-03  2.075050E-03
       198 -7.762500E-05  6.255424E-03  2.075050E-03
       199 -1.552500E-04  7.255564E-03  2.230300E-03
       200 -7.762500E-05  7.225256E-03  2.230300E-03
       201 -1.552500E-04  8.293525E-03  2.385550E-03
       202 -7.762500E-05  8.263090E-03  2.385550E-03
       203 -1.552500E-04  9.400432E-03  2.540800E-03
       204 -7.762500E-05  9.370674E-03  2.540800E-03
       205 -6.851260E-17  7.930097E-05  2.391668E-04
       206  0.000000E+00  0.000000E+00  0.000000E+00
       207 -2.635908E-16  1.984029E-04  3.741717E-04
       208 -5.720872E-16  3.999662E-04  5.205701E-04
       209 -9.859192E-16  6.701391E-04  6.777326E-04
       210 -1.493792E-15  1.010279E-03  8.330852E-04
       211 -2.084930E-15  1.420330E-03  9.883097E-04
       212 -2.748405E-15  1.900309E-03  1.143547E-03
       213 -3.472762E-15  2.450208E-03  1.298800E-03
       214 -4.246913E-15  3.070030E-03  1.454050E-03
       215 -5.061706E-15  3.759774E-03  1.609300E-03
       216 -5.904118E-15  4.519440E-03  1.764550E-03
       217 -6.768567E-15  5.349031E-03  1.919800E-03
       218 -7.648477E-15  6.248487E-03  2.075050E-03
       219 -8.539610E-15  7.218327E-03  2.230300E-03
       220 -9.433501E-15  8.256005E-03  2.385550E-03
       221 -1.032785E-14  9.363449E-03  2.540800E-03
       222  7.741467E-05  8.352659E-05  2.347167E-04
       223  0.000000E+00  0.000000E+00  0.000000E+00
       224  8.235583E-05  2.054558E-04  3.701528E-04
       225  7.734606E-05  4.068762E-04  5.216019E-04
       226  7.749932E-05  6.771100E-04  6.777078E-04
       227  7.762612E-05  1.017207E-03  8.330834E-04
       228  7.763119E-05  1.427270E-03  9.883026E-04
       229  7.762465E-05  1.907247E-03  1.143549E-03
       230  7.762486E-05  2.457147E-03  1.298800E-03
       231  7.762499E-05  3.076969E-03  1.454050E-03
       232  7.762501E-05  3.766712E-03  1.609300E-03
       233  7.762500E-05  4.526378E-03  1.764550E-03
       234  7.762500E-05  5.355970E-03  1.919800E-03
       235  7.762500E-05  6.255424E-03  2.075050E-03
       236  7.762500E-05  7.225256E-03  2.230300E-03
       237  7.762500E-05  8.263090E-03  2.385550E-03
       238  7.762500E-05  9.370674E-03  2.540800E-03
       239  1.663425E-04  1.118457E-04  2.054968E-04
       240  0.000000E+00  0.000000E+00  0.000000E+00
       241  1.578501E-04  2.355498E-04  3.705451E-04
       242  1.556175E-04  4.373599E-04  5.225185E-04
       243  1.549770E-04  7.073997E-04  6.777564E-04
       244  1.552762E-04  1.047516E-03  8.330318E-04
       245  1.552508E-04  1.457579E-03  9.883056E-04
       246  1.552511E-04  1.937557E-03  1.143550E-03
       247  1.552495E-04  2.487456E-03  1.298800E-03
       248  1.552500E-04  3.107278E-03  1.454050E-03
       249  1.552500E-04  3.797022E-03  1.609300E-03
       250  1.552500E-04  4.556688E-03  1.764550E-03
       251  1.552500E-04  5.386278E-03  1.919800E-03
       252  1.552500E-04  6.285737E-03  2.075050E-03
       253  1.552500E-04  7.255564E-03  2.230300E-03
       254  1.552500E-04  8.293525E-03  2.385550E-03
       255  1.552500E-04  9.400432E-03  2.540800E-03
       256 -2.183992E-04 -1.605211E-05  2.494193E-04
       257  0.000000E+00  0.000000E+00  0.000000E+00
       258 -9.878159E-05 -3.793831E-05  2.860973E-04
       259  0.000000E+00  0.000000E+00  0.000000E+00
       260 -2.083868E-04  1.123441E-04  4.478888E-04
       261 -1.054839E-04  8.748283E-05  4.473912E-04
       262 -2.061889E-04  3.173612E-04  6.414421E-04
       263 -9.996284E-05  2.925811E-04  6.403720E-04
       264 -2.057727E-04  5.873173E-04  8.303077E-04
       265 -1.001905E-04  5.626619E-04  8.302903E-04
       266 -2.059290E-04  9.273649E-04  1.020575E-03
       267 -1.002862E-04  9.026824E-04  1.020613E-03
       268 -2.059424E-04  1.337413E-03  1.210807E-03
       269 -1.002981E-04  1.312734E-03  1.210810E-03
       270 -2.059351E-04  1.817396E-03  1.401021E-03
       271 -1.002913E-04  1.792716E-03  1.401019E-03
       272 -2.059352E-04  2.367296E-03  1.591230E-03
       273 -1.002914E-04  2.342616E-03  1.591230E-03
       274 -2.059354E-04  2.987118E-03  1.781441E-03
       275 -1.002915E-04  2.962438E-03  1.781441E-03
       276 -2.059352E-04  3.676861E-03  1.971653E-03
       277 -1.002915E-04  3.652182E-03  1.971652E-03
       278 -2.059361E-04  4.436527E-03  2.161863E-03
       279 -1.002918E-04  4.411847E-03  2.161863E-03
       280 -2.059344E-04  5.266118E-03  2.352071E-03
       281 -1.002918E-04  5.241437E-03  2.352068E-03
       282 -2.059222E-04  6.165613E-03  2.542334E-03
       283 -1.002822E-04  6.140940E-03  2.542342E-03
       284 -2.060388E-04  7.135036E-03  2.732227E-03
       285 -1.003502E-04  7.110361E-03  2.732253E-03
       286 -2.057010E-04  8.175118E-03  2.922904E-03
       287 -1.001263E-04  8.150186E-03  2.922652E-03
       288 -2.035455E-04  9.279830E-03  3.121413E-03
       289 -9.957514E-05  9.254998E-03  3.123077E-03
       290 -5.491286E-17 -4.603888E-05  2.909973E-04
       291  0.000000E+00  0.000000E+00  0.000000E+00
       292 -2.387301E-16  7.783936E-05  4.522323E-04
       293 -5.374441E-16  2.834250E-04  6.391526E-04
       294 -9.412878E-16  5.534745E-04  8.303081E-04
       295 -1.439753E-15  8.934897E-04  1.020629E-03
       296 -2.022711E-15  1.303537E-03  1.210812E-03
       297 -2.678115E-15  1.783522E-03  1.401018E-03
       298 -3.395596E-15  2.333421E-03  1.591230E-03
       299 -4.163851E-15  2.953243E-03  1.781441E-03
       300 -4.973452E-15  3.642987E-03  1.971652E-03
       301 -5.811121E-15  4.402653E-03  2.161864E-03
       302 -6.674176E-15  5.232240E-03  2.352066E-03
       303 -7.552457E-15  6.131756E-03  2.542351E-03
       304 -8.441541E-15  7.101127E-03  2.732218E-03
       305 -9.335740E-15  8.141013E-03  2.922725E-03
       306 -1.023034E-14  9.245839E-03  3.123892E-03
       307  9.878159E-05 -3.793831E-05  2.860973E-04
       308  0.000000E+00  0.000000E+00  0.000000E+00
       309  1.054839E-04  8.748283E-05  4.473912E-04
       310  9.996284E-05  2.925811E-04  6.403720E-04
       311  1.001905E-04  5.626619E-04  8.302903E-04
       312  1.002862E-04  9.026824E-04  1.020613E-03
       313  1.002981E-04  1.312734E-03  1.210810E-03
       314  1.002913E-04  1.792716E-03  1.401019E-03
       315  1.002914E-04  2.342616E-03  1.591230E-03
       316  1.002915E-04  2.962438E-03  1.781441E-03
       317  1.002915E-04  3.652182E-03  1.971652E-03
       318  1.002918E-04  4.411847E-03  2.161863E-03
       319  1.002918E-04  5.241437E-03  2.352068E-03
       320  1.002822E-04  6.140940E-03  2.542342E-03
       321  1.003502E-04  7.110361E-03  2.732253E-03
       322  1.001263E-04  8.150186E-03  2.922652E-03
       323  9.957514E-05  9.254998E-03  3.123077E-03
       324  2.183992E-04 -1.605211E-05  2.494193E-04
       325  0.000000E+00  0.000000E+00  0.000000E+00
       326  2.083868E-04  1.123441E-04  4.478888E-04
       327  2.061889E-04  3.173612E-04  6.414421E-04
       328  2.057727E-04  5.873173E-04  8.303077E-04
       329  2.059290E-04  9.273649E-04  1.020575E-03
       330  2.059424E-04  1.337413E-03  1.210807E-03
       331  2.059351E-04  1.817396E-03  1.401021E-03
       332  2.059352E-04  2.367296E-03  1.591230E-03
       333  2.059354E-04  2.987118E-03  1.781441E-03
       334  2.059352E-04  3.676861E-03  1.971653E-03
       335  2.059361E-04  4.436527E-03  2.161863E-03
       336  2.059344E-04  5.266118E-03  2.352071E-03
       337  2.059222E-04  6.165613E-03  2.542334E-03
       338  2.060388E-04  7.135036E-03  2.732227E-03
       339  2.057010E-04  8.175118E-03  2.922904E-03
       340  2.035455E-04  9.279830E-03  3.121413E-03
       341 -2.224626E-04 -1.368031E-04  2.591516E-04
       342  0.000000E+00  0.000000E+00  0.000000E+00
       343 -1.093350E-04 -1.524277E-04  2.966948E-04
       344  0.000000E+00  0.000000E+00  0.000000E+00
       345 -2.188358E-04  9.027369E-06  5.326445E-04
       346 -1.184817E-04 -1.096362E-05  5.326747E-04
       347 -2.180774E-04  2.091836E-04  7.595839E-04
       348 -1.128422E-04  1.919428E-04  7.586093E-04
       349 -2.168983E-04  4.800036E-04  9.829922E-04
       350 -1.129412E-04  4.622424E-04  9.828990E-04
       351 -2.172103E-04  8.199851E-04  1.208081E-03
       352 -1.130568E-04  8.022946E-04  1.208135E-03
       353 -2.171897E-04  1.230046E-03  1.433315E-03
       354 -1.130706E-04  1.212328E-03  1.433314E-03
       355 -2.171917E-04  1.710022E-03  1.658491E-03
       356 -1.130630E-04  1.692314E-03  1.658490E-03
       357 -2.171897E-04  2.259923E-03  1.883661E-03
       358 -1.130632E-04  2.242214E-03  1.883661E-03
       359 -2.171902E-04  2.879745E-03  2.108833E-03
       360 -1.130633E-04  2.862035E-03  2.108833E-03
       361 -2.171904E-04  3.569489E-03  2.334005E-03
       362 -1.130634E-04  3.551779E-03  2.334005E-03
       363 -2.171894E-04  4.329152E-03  2.559176E-03
       364 -1.130632E-04  4.311444E-03  2.559176E-03
       365 -2.171918E-04  5.158752E-03  2.784355E-03
       366 -1.130650E-04  5.141037E-03  2.784358E-03
       367 -2.172049E-04  6.058243E-03  3.009485E-03
       368 -1.130549E-04  6.040549E-03  3.009471E-03
       369 -2.169852E-04  7.027432E-03  3.234776E-03
       370 -1.130591E-04  7.009760E-03  3.234821E-03
       371 -2.182701E-04  8.069196E-03  3.460532E-03
       372 -1.133040E-04  8.051022E-03  3.460561E-03
       373 -2.178961E-04  9.170773E-03  3.674854E-03
       374 -1.129155E-04  9.152070E-03  3.675044E-03
       375 -3.179128E-17 -1.639936E-04  3.011253E-04
       376  0.000000E+00  0.000000E+00  0.000000E+00
       377 -2.052598E-16 -2.115584E-05  5.376204E-04
       378 -4.946918E-16  1.815408E-04  7.574097E-04
       379 -8.897143E-16  4.522938E-04  9.829428E-04
       380 -1.379865E-15  7.921443E-04  1.208130E-03
       381 -1.955107E-15  1.202225E-03  1.433323E-03
       382 -2.604010E-15  1.682202E-03  1.658488E-03
       383 -3.314719E-15  2.232104E-03  1.883661E-03
       384 -4.078567E-15  2.851925E-03  2.108833E-03
       385 -4.881131E-15  3.541669E-03  2.334005E-03
       386 -5.717032E-15  4.301333E-03  2.559176E-03
       387 -6.578356E-15  5.130927E-03  2.784354E-03
       388 -7.455742E-15  6.030445E-03  3.009492E-03
       389 -8.341784E-15  6.999604E-03  3.234751E-03
       390 -9.239720E-15  8.040994E-03  3.460687E-03
       391 -1.013357E-14  9.142076E-03  3.674416E-03
       392  1.093350E-04 -1.524277E-04  2.966948E-04
       393  0.000000E+00  0.000000E+00  0.000000E+00
       394  1.184817E-04 -1.096362E-05  5.326747E-04
       395  1.128422E-04  1.919428E-04  7.586093E-04
       396  1.129412E-04  4.622424E-04  9.828990E-04
       397  1.130568E-04  8.022946E-04  1.208135E-03
       398  1.130706E-04  1.212328E-03  1.433314E-03
       399  1.130630E-04  1.692314E-03  1.658490E-03
       400  1.130632E-04  2.242214E-03  1.883661E-03
       401  1.130633E-04  2.862035E-03  2.108833E-03
       402  1.130634E-04  3.551779E-03  2.334005E-03
       403  1.130632E-04  4.311444E-03  2.559176E-03
       404  1.130650E-04  5.141037E-03  2.784358E-03
       405  1.130549E-04  6.040549E-03  3.009471E-03
       406  1.130591E-04  7.009760E-03  3.234821E-03
       407  1.133040E-04  8.051022E-03  3.460561E-03
       408  1.129155E-04  9.152070E-03  3.675044E-03
       409  2.224626E-04 -1.368031E-04  2.591516E-04
       410  0.000000E+00  0.000000E+00  0.000000E+00
       411  2.188358E-04  9.027369E-06  5.326445E-04
       412  2.180774E-04  2.091836E-04  7.595839E-04
       413  2.168983E-04  4.800036E-04  9.829922E-04
       414  2.172103E-04  8.199851E-04  1.208081E-03
       415  2.171897E-04  1.230046E-03  1.433315E-03
       416  2.171917E-04  1.710022E-03  1.658491E-03
       417  2.171897E-04  2.259923E-03  1.883661E-03
       418  2.171902E-04  2.879745E-03  2.108833E-03
       419  2.171904E-04  3.569489E-03  2.334005E-03
       420  2.171894E-04  4.329152E-03  2.559176E-03
       421  2.171918E-04  5.158752E-03  2.784355E-03
       422  2.172049E-04  6.058243E-03  3.009485E-03
       423  2.169852E-04  7.027432E-03  3.234776E-03
       424  2.182701E-04  8.069196E-03  3.460532E-03
       425  2.178961E-04  9.170773E-03  3.674854E-03

 stresses (elem, integ.pnt.,sxx,syy,szz,sxy,sxz,syz) for set EALL and time  0.1000000E+01

         1   1 -6.409983E+01 -6.477283E+01 -3.861525E+01 -4.828367E-01 -1.345808E+01  2.356385E+01
         1   2 -1.090824E+01 -1.341991E+01 -7.251898E+00 -1.801971E+00 -9.585556E+00  1.087310E+01
         1   3 -5.511621E+01 -5.548381E+01 -1.663549E+01 -8.327832E-01 -1.412140E+01  1.856646E+01
         1   4 -3.384751E+00 -4.756662E+00  1.410209E+01 -3.107989E+00 -1.011052E+01  5.875710E+00
         1   5 -6.067052E+01 -6.064362E+01 -3.131341E+01 -3.301386E-01 -8.001021E+00  2.213967E+01
         1   6 -6.044821E+00 -5.944451E+00  1.484045E+00 -1.232094E+00 -4.128498E+00  9.310552E+00
         1   7 -5.158312E+01 -5.125083E+01 -9.091513E+00 -6.800851E-01 -8.872936E+00  1.666424E+01
         1   8  1.582444E+00  2.822568E+00  2.308018E+01 -2.538112E+00 -4.862046E+00  3.835125E+00
         2   1  8.133524E+00  5.431393E+00  8.778863E+00 -2.156062E+00  6.234715E+00 -1.585640E+00
         2   2 -3.844881E-01 -1.768311E+00  4.063548E+00 -1.804321E+00  2.353148E+00 -4.700839E+00
         2   3  8.505608E+00  6.925943E+00  1.338861E+01 -3.763170E+00  5.885470E+00 -9.645427E-01
         2   4  1.530384E+00  3.874334E-01  9.334491E+00 -3.277950E+00  1.861486E+00 -4.079741E+00
         2   5  7.633011E+00  8.145096E+00  4.396783E+00 -1.594829E+00  5.284041E+00 -2.134073E+00
         2   6 -1.085220E+00  4.782151E-01 -5.187500E-01 -1.683885E+00  1.402474E+00 -5.106855E+00
         2   7  7.898282E+00  9.532833E+00  8.757302E+00 -3.201937E+00  5.155194E+00 -1.446237E+00
         2   8  7.228398E-01  2.527147E+00  4.502963E+00 -3.157514E+00  1.131210E+00 -4.419018E+00
         3   1 -7.197709E+00 -8.064178E+00 -8.086585E+00 -1.880076E+00  1.194629E-01  2.523822E+00
         3   2 -4.341626E+00 -5.112964E+00 -6.344396E+00 -2.438783E+00  1.740734E-02 -3.414159E+00
         3   3 -2.881585E+00 -3.669562E+00  2.246013E+00 -3.268498E+00  2.945638E-01  2.221566E+00
         3   4 -7.919377E-01 -1.046820E+00  3.659730E+00 -3.727891E+00  1.713800E-01 -3.716416E+00
         3   5 -5.191619E+00 -3.281246E+00 -6.182551E+00 -1.840830E+00  3.979364E-01  2.449069E+00
         3   6 -2.484505E+00 -6.776272E-01 -4.589331E+00 -2.180555E+00  2.958809E-01 -3.467784E+00
         3   7 -8.913414E-01  1.097525E+00  4.113073E+00 -3.229251E+00  4.635465E-01  2.196470E+00
         3   8  1.049337E+00  3.372671E+00  5.377820E+00 -3.469663E+00  3.403627E-01 -3.720384E+00
         4   1 -4.433036E+00 -5.226412E+00 -7.988341E+00 -2.602103E+00 -1.084134E-01  3.415726E+00
         4   2 -5.044567E+00 -5.993282E+00 -8.401861E+00 -2.489593E+00 -9.781408E-03 -3.290518E+00
         4   3 -5.453809E-01 -6.861695E-01  3.258146E+00 -3.866516E+00 -1.572157E-01  3.504064E+00
         4   4 -1.041332E+00 -1.403505E+00  2.894160E+00 -3.785852E+00 -2.709673E-02 -3.202180E+00
         4   5 -2.462442E+00 -7.269919E-01 -5.919115E+00 -2.275809E+00 -1.579160E-01  3.487352E+00
         4   6 -3.026205E+00 -1.382404E+00 -6.284867E+00 -2.196322E+00 -5.928405E-02 -3.250379E+00
         4   7  1.448828E+00  3.836866E+00  5.382473E+00 -3.540222E+00 -1.902069E-01  3.559767E+00
         4   8  1.000645E+00  3.230988E+00  5.066255E+00 -3.492581E+00 -6.008794E-02 -3.177964E+00
         5   1 -4.925583E+00 -5.914464E+00 -7.787334E+00 -2.450919E+00 -3.021121E-02  3.307432E+00
         5   2 -4.864060E+00 -5.807336E+00 -7.736738E+00 -2.457769E+00 -1.188738E-02 -3.233530E+00
         5   3 -1.006190E+00 -1.431455E+00  3.236639E+00 -3.756712E+00 -2.360468E-02  3.293299E+00
         5   4 -9.506382E-01 -1.326886E+00  3.284675E+00 -3.757766E+00 -1.195230E-02 -3.247663E+00
         5   5 -2.953151E+00 -1.330445E+00 -5.796577E+00 -2.169111E+00 -2.747918E-02  3.293647E+00
         5   6 -2.900320E+00 -1.243601E+00 -5.754675E+00 -2.174254E+00 -9.155351E-03 -3.240644E+00
         5   7  9.612395E-01  3.147561E+00  5.215720E+00 -3.474904E+00 -2.172579E-02  3.282412E+00
         5   8  1.008098E+00  3.231846E+00  5.255063E+00 -3.474252E+00 -1.007341E-02 -3.251879E+00
         6   1 -4.832775E+00 -5.762209E+00 -7.693466E+00 -2.459252E+00  7.000367E-03  3.248911E+00
         6   2 -4.840900E+00 -5.778118E+00 -7.700676E+00 -2.456453E+00  1.514640E-03 -3.264167E+00
         6   3 -9.409516E-01 -1.302965E+00  3.278855E+00 -3.757773E+00  6.094211E-03  3.251086E+00
         6   4 -9.449746E-01 -1.317117E+00  3.273402E+00 -3.756738E+00  1.037664E-03 -3.261992E+00
         6   5 -2.889107E+00 -1.221497E+00 -5.755283E+00 -2.175542E+00  6.771766E-03  3.250349E+00
         6   6 -2.894587E+00 -1.231236E+00 -5.759849E+00 -2.173915E+00  1.286040E-03 -3.263157E+00
         6   7  1.003039E+00  3.238068E+00  5.217789E+00 -3.474063E+00  6.451574E-03  3.251643E+00
         6   8  1.001660E+00  3.230087E+00  5.214981E+00 -3.474200E+00  1.395026E-03 -3.261864E+00
         7   1 -4.849946E+00 -5.789620E+00 -7.719536E+00 -2.456029E+00  8.003420E-04  3.260269E+00
         7   2 -4.846528E+00 -5.785125E+00 -7.717162E+00 -2.457669E+00  2.366829E-04 -3.260711E+00
         7   3 -9.473816E-01 -1.322387E+00  3.268678E+00 -3.756764E+00  1.305496E-03  3.259739E+00
         7   4 -9.461183E-01 -1.318815E+00  3.270129E+00 -3.757869E+00  5.989841E-04 -3.261242E+00
         7   5 -2.899268E+00 -1.237473E+00 -5.769421E+00 -2.173695E+00  1.061407E-03  3.259832E+00
         7   6 -2.896651E+00 -1.234849E+00 -5.767849E+00 -2.174719E+00  4.977483E-04 -3.261005E+00
         7   7  1.003190E+00  3.229654E+00  5.218543E+00 -3.474429E+00  1.258695E-03  3.259569E+00
         7   8  1.003651E+00  3.231354E+00  5.219192E+00 -3.474918E+00  5.521830E-04 -3.261268E+00
         8   1 -4.846861E+00 -5.785135E+00 -7.719544E+00 -2.458120E+00 -1.550373E-04  3.260757E+00
         8   2 -4.847597E+00 -5.786064E+00 -7.720044E+00 -2.457714E+00  1.159824E-05 -3.260652E+00
         8   3 -9.467289E-01 -1.318760E+00  3.268240E+00 -3.758161E+00 -3.615750E-04  3.260865E+00
         8   4 -9.469454E-01 -1.319466E+00  3.267963E+00 -3.757854E+00 -9.089033E-05 -3.260544E+00
         8   5 -2.896676E+00 -1.234868E+00 -5.769192E+00 -2.174999E+00 -2.141304E-04  3.260946E+00
         8   6 -2.897262E+00 -1.235449E+00 -5.769542E+00 -2.174741E+00 -4.749476E-05 -3.260567E+00
         8   7  1.003535E+00  3.231585E+00  5.218774E+00 -3.475040E+00 -3.464714E-04  3.261003E+00
         8   8  1.003468E+00  3.231227E+00  5.218646E+00 -3.474881E+00 -7.578676E-05 -3.260510E+00
         9   1 -4.847455E+00 -5.785985E+00 -7.719304E+00 -2.457594E+00 -6.471096E-05  3.260674E+00
         9   2 -4.847392E+00 -5.785902E+00 -7.719260E+00 -2.457670E+00 -2.880289E-05 -3.260592E+00
         9   3 -9.467619E-01 -1.319431E+00  3.268516E+00 -3.757766E+00 -7.131403E-06  3.260664E+00
         9   4 -9.468125E-01 -1.319396E+00  3.268511E+00 -3.757833E+00 -4.900868E-06 -3.260601E+00
         9   5 -2.897169E+00 -1.235353E+00 -5.768982E+00 -2.174663E+00 -6.000257E-05  3.260626E+00
         9   6 -2.897122E+00 -1.235306E+00 -5.768953E+00 -2.174708E+00 -2.409450E-05 -3.260607E+00
         9   7  1.003499E+00  3.231175E+00  5.218779E+00 -3.474836E+00 -1.859213E-05  3.260621E+00
         9   8  1.003433E+00  3.231175E+00  5.218759E+00 -3.474870E+00 -1.636160E-05 -3.260611E+00
        10   1 -4.847321E+00 -5.785757E+00 -7.719128E+00 -2.457679E+00  2.555859E-05  3.260640E+00