
 displacements (vx,vy,vz) for set N1 and time  0.1910792E-07

       100 -2.173345E-24  1.423266E-23 -5.194515E-07

 displacements (vx,vy,vz) for set N1 and time  0.3821585E-07

       100 -2.219657E-23  1.180438E-22 -1.858896E-06

 displacements (vx,vy,vz) for set N1 and time  0.5732377E-07

       100 -4.347757E-23  4.072799E-22 -3.529214E-06

 displacements (vx,vy,vz) for set N1 and time  0.7643170E-07

       100 -5.377231E-23  7.051074E-22 -5.250080E-06

 displacements (vx,vy,vz) for set N1 and time  0.9553962E-07

       100  5.564540E-23  7.024564E-22 -7.291213E-06

 displacements (vx,vy,vz) for set N1 and time  0.1146475E-06

       100  5.193051E-22  6.036684E-22 -1.025294E-05

 displacements (vx,vy,vz) for set N1 and time  0.1337555E-06

       100  1.018865E-21  1.278642E-21 -1.454122E-05

 displacements (vx,vy,vz) for set N1 and time  0.1528634E-06

       100  1.107696E-21  3.512727E-21 -2.004322E-05

 displacements (vx,vy,vz) for set N1 and time  0.1719713E-06

       100  1.450083E-21  6.886708E-21 -2.628635E-05

 displacements (vx,vy,vz) for set N1 and time  0.1910792E-06

       100  2.425476E-21  9.817092E-21 -3.288035E-05

 displacements (vx,vy,vz) for set N1 and time  0.2101872E-06

       100  3.625438E-21  1.107119E-20 -3.978932E-05

 displacements (vx,vy,vz) for set N1 and time  0.2292951E-06

       100  5.382441E-21  1.079650E-20 -4.719276E-05

 displacements (vx,vy,vz) for set N1 and time  0.2484030E-06

       100  8.552595E-21  9.809222E-21 -5.512758E-05

 displacements (vx,vy,vz) for set N1 and time  0.2675109E-06

       100  1.412790E-20  8.379588E-21 -6.330729E-05

 displacements (vx,vy,vz) for set N1 and time  0.2866189E-06

       100  2.237200E-20  6.553646E-21 -7.130155E-05

 displacements (vx,vy,vz) for set N1 and time  0.3057268E-06

       100  3.313815E-20  5.367543E-21 -7.887396E-05

 displacements (vx,vy,vz) for set N1 and time  0.3248347E-06

       100  4.621804E-20  5.957681E-21 -8.612461E-05

 displacements (vx,vy,vz) for set N1 and time  0.3439426E-06

       100  6.145314E-20  9.088106E-21 -9.330501E-05

 displacements (vx,vy,vz) for set N1 and time  0.3630506E-06

       100  7.826396E-20  1.546689E-20 -1.005140E-04

 displacements (vx,vy,vz) for set N1 and time  0.3821585E-06

       100  9.476010E-20  2.394880E-20 -1.075859E-04

 displacements (vx,vy,vz) for set N1 and time  0.4012664E-06

       100  1.106884E-19  3.248265E-20 -1.142592E-04

 displacements (vx,vy,vz) for set N1 and time  0.4203743E-06

       100  1.286281E-19  4.148203E-20 -1.204205E-04

 displacements (vx,vy,vz) for set N1 and time  0.4394823E-06

       100  1.503346E-19  5.321391E-20 -1.261666E-04

 displacements (vx,vy,vz) for set N1 and time  0.4585902E-06

       100  1.723572E-19  6.792046E-20 -1.316485E-04

 displacements (vx,vy,vz) for set N1 and time  0.4776981E-06

       100  1.906952E-19  8.293650E-20 -1.368975E-04

 displacements (vx,vy,vz) for set N1 and time  0.4968060E-06

       100  2.066163E-19  9.515132E-20 -1.418382E-04

 displacements (vx,vy,vz) for set N1 and time  0.5000000E-06

       100  2.091958E-19  9.680838E-20 -1.426295E-04
