
 displacements (vx,vy,vz) for set NALL and time  0.1000000E+01

         1  0.000000E+00  0.000000E+00  0.000000E+00
         2  2.421073E-02  0.000000E+00  0.000000E+00
         3  2.421073E-02  2.421073E-02  0.000000E+00
         4 -5.821732E-15  2.421073E-02  0.000000E+00
         5 -2.612934E-15  1.130194E-14  0.000000E+00
         6  2.421073E-02  1.723014E-14  0.000000E+00
         7  2.421073E-02  2.421073E-02  0.000000E+00
         8 -8.205555E-15  2.421073E-02  0.000000E+00
         9  6.043915E-03 -2.227313E-06  0.000000E+00
        10  1.210537E-02  2.008851E-06  0.000000E+00
        11  1.816682E-02 -2.227313E-06  0.000000E+00
        12  2.421296E-02  6.043915E-03  0.000000E+00
        13  2.420873E-02  1.210537E-02  0.000000E+00
        14  2.421296E-02  1.816682E-02  0.000000E+00
        15  1.816682E-02  2.421296E-02  0.000000E+00
        16  1.210537E-02  2.420873E-02  0.000000E+00
        17  6.043915E-03  2.421296E-02  0.000000E+00
        18 -2.227313E-06  1.816682E-02  0.000000E+00
        19  2.008851E-06  1.210537E-02  0.000000E+00
        20 -2.227313E-06  6.043915E-03  0.000000E+00
        21  6.043915E-03 -2.227313E-06  0.000000E+00
        22  1.210537E-02  2.008851E-06  0.000000E+00
        23  1.816682E-02 -2.227313E-06  0.000000E+00
        24  2.421296E-02  6.043915E-03  0.000000E+00
        25  2.420873E-02  1.210537E-02  0.000000E+00
        26  2.421296E-02  1.816682E-02  0.000000E+00
        27  1.816682E-02  2.421296E-02  0.000000E+00
        28  1.210537E-02  2.420873E-02  0.000000E+00
        29  6.043915E-03  2.421296E-02  0.000000E+00
        30 -2.227313E-06  1.816682E-02  0.000000E+00
        31  2.008851E-06  1.210537E-02  0.000000E+00
        32 -2.227313E-06  6.043915E-03  0.000000E+00
        33  2.420996E-02  7.781096E-07  1.573134E-03
        34  2.419597E-02  1.476320E-05  3.105802E-03
        35  2.420189E-02  8.846899E-06  4.542058E-03
        36  2.411522E-02  9.551690E-05  5.998251E-03
        37  2.430727E-02 -9.653715E-05  8.751990E-03
        38  2.079639E-02  3.414346E-03  1.329256E-02
        39  1.579715E-02  8.413581E-03  7.373177E-03
        40  1.444155E-02  9.769185E-03  1.230178E-15
        41  1.579715E-02  8.413581E-03 -7.373177E-03
        42  2.079639E-02  3.414346E-03 -1.329256E-02
        43  2.430727E-02 -9.653715E-05 -8.751990E-03
        44  2.411522E-02  9.551690E-05 -5.998251E-03
        45  2.420189E-02  8.846899E-06 -4.542058E-03
        46  2.419597E-02  1.476320E-05 -3.105802E-03
        47  2.420996E-02  7.781096E-07 -1.573134E-03
        48  7.781096E-07  7.781096E-07 -1.573134E-03
        49  1.476320E-05  1.476320E-05 -3.105802E-03
        50  8.846899E-06  8.846899E-06 -4.542058E-03
        51  9.551690E-05  9.551690E-05 -5.998251E-03
        52 -9.653715E-05 -9.653715E-05 -8.751990E-03
        53  3.414346E-03  3.414346E-03 -1.329256E-02
        54  8.413581E-03  8.413581E-03 -7.373177E-03
        55  9.769185E-03  9.769185E-03  1.283540E-15
        56  8.413581E-03  8.413581E-03  7.373177E-03
        57  3.414346E-03  3.414346E-03  1.329256E-02
        58 -9.653715E-05 -9.653715E-05  8.751990E-03
        59  9.551690E-05  9.551690E-05  5.998251E-03
        60  8.846899E-06  8.846899E-06  4.542058E-03
        61  1.476320E-05  1.476320E-05  3.105802E-03
        62  7.781096E-07  7.781096E-07  1.573134E-03
        63  2.420996E-02  2.420996E-02  1.573134E-03
        64  2.419597E-02  2.419597E-02  3.105802E-03
        65  2.420189E-02  2.420189E-02  4.542058E-03
        66  2.411522E-02  2.411522E-02  5.998251E-03
        67  2.430727E-02  2.430727E-02  8.751990E-03
        68  2.079639E-02  2.079639E-02  1.329256E-02
        69  1.579715E-02  1.579715E-02  7.373177E-03
        70  1.444155E-02  1.444155E-02 -1.159838E-15
        71  1.579715E-02  1.579715E-02 -7.373177E-03
        72  2.079639E-02  2.079639E-02 -1.329256E-02
        73  2.430727E-02  2.430727E-02 -8.751990E-03
        74  2.411522E-02  2.411522E-02 -5.998251E-03
        75  2.420189E-02  2.420189E-02 -4.542058E-03
        76  2.419597E-02  2.419597E-02 -3.105802E-03
        77  2.420996E-02  2.420996E-02 -1.573134E-03
        78  7.781096E-07  2.420996E-02  1.573134E-03
        79  1.476320E-05  2.419597E-02  3.105802E-03
        80  8.846899E-06  2.420189E-02  4.542058E-03
        81  9.551690E-05  2.411522E-02  5.998251E-03
        82 -9.653715E-05  2.430727E-02  8.751990E-03
        83  3.414346E-03  2.079639E-02  1.329256E-02
        84  8.413581E-03  1.579715E-02  7.373177E-03
        85  9.769185E-03  1.444155E-02 -1.102538E-15
        86  8.413581E-03  1.579715E-02 -7.373177E-03
        87  3.414346E-03  2.079639E-02 -1.329256E-02
        88 -9.653715E-05  2.430727E-02 -8.751990E-03
        89  9.551690E-05  2.411522E-02 -5.998251E-03
        90  8.846899E-06  2.420189E-02 -4.542058E-03
        91  1.476320E-05  2.419597E-02 -3.105802E-03
        92  7.781096E-07  2.420996E-02 -1.573134E-03
        93  1.210537E-02  6.047139E-03  0.000000E+00
        94  6.047139E-03  1.210537E-02  0.000000E+00
        95  1.210537E-02  1.210537E-02  0.000000E+00
        96  1.816360E-02  1.210537E-02  0.000000E+00
        97  1.210537E-02  1.816360E-02  0.000000E+00
        98  1.210537E-02  6.047139E-03  0.000000E+00
        99  6.047139E-03  1.210537E-02  0.000000E+00
       100  1.210537E-02  1.210537E-02  0.000000E+00
       101  1.816360E-02  1.210537E-02  0.000000E+00
       102  1.210537E-02  1.816360E-02  0.000000E+00
       103  1.210537E-02 -2.006686E-06  1.557690E-03
       104  6.076836E-03  1.040152E-05  3.089610E-03
       105  1.210537E-02 -3.227961E-06  3.126609E-03
       106  1.813390E-02  1.040152E-05  3.089610E-03
       107  1.210537E-02  3.442510E-05  4.577033E-03
       108  6.052930E-03  9.103555E-05  6.134360E-03
       109  1.210537E-02  1.003244E-04  6.044700E-03
       110  1.815780E-02  9.103555E-05  6.134360E-03
       111  1.210537E-02 -2.723167E-04  7.833798E-03
       112  7.735721E-03  3.387572E-03  1.147811E-02
       113  1.210537E-02  3.344554E-03  1.104336E-02
       114  1.647501E-02  3.387572E-03  1.147811E-02
       115  1.210537E-02  8.560605E-03  5.833511E-03
       116  1.106243E-02  9.853526E-03  1.250670E-15
       117  1.210537E-02  9.952826E-03  1.263282E-15
       118  1.314830E-02  9.853526E-03  1.260526E-15
       119  1.210537E-02  8.560605E-03 -5.833511E-03
       120  7.735721E-03  3.387572E-03 -1.147811E-02
       121  1.210537E-02  3.344554E-03 -1.104336E-02
       122  1.647501E-02  3.387572E-03 -1.147811E-02
       123  1.210537E-02 -2.723167E-04 -7.833798E-03
       124  6.052930E-03  9.103555E-05 -6.134360E-03
       125  1.210537E-02  1.003244E-04 -6.044700E-03
       126  1.815780E-02  9.103555E-05 -6.134360E-03
       127  1.210537E-02  3.442510E-05 -4.577033E-03
       128  6.076836E-03  1.040152E-05 -3.089610E-03
       129  1.210537E-02 -3.227961E-06 -3.126609E-03
       130  1.813390E-02  1.040152E-05 -3.089610E-03
       131  1.210537E-02 -2.006686E-06 -1.557690E-03
       132  2.421274E-02  1.210537E-02  1.557690E-03
       133  2.420033E-02  6.076836E-03  3.089610E-03
       134  2.421396E-02  1.210537E-02  3.126609E-03
       135  2.420033E-02  1.813390E-02  3.089610E-03
       136  2.417631E-02  1.210537E-02  4.577033E-03
       137  2.411970E-02  6.052930E-03  6.134360E-03
       138  2.411041E-02  1.210537E-02  6.044700E-03
       139  2.411970E-02  1.815780E-02  6.134360E-03
       140  2.448305E-02  1.210537E-02  7.833798E-03
       141  2.082316E-02  7.735721E-03  1.147811E-02
       142  2.086618E-02  1.210537E-02  1.104336E-02
       143  2.082316E-02  1.647501E-02  1.147811E-02
       144  1.565013E-02  1.210537E-02  5.833511E-03
       145  1.435721E-02  1.106243E-02  5.977884E-16
       146  1.425791E-02  1.210537E-02  2.808485E-17
       147  1.435721E-02  1.314830E-02 -5.580497E-16
       148  1.565013E-02  1.210537E-02 -5.833511E-03
       149  2.082316E-02  7.735721E-03 -1.147811E-02
       150  2.086618E-02  1.210537E-02 -1.104336E-02
       151  2.082316E-02  1.647501E-02 -1.147811E-02
       152  2.448305E-02  1.210537E-02 -7.833798E-03
       153  2.411970E-02  6.052930E-03 -6.134360E-03
       154  2.411041E-02  1.210537E-02 -6.044700E-03
       155  2.411970E-02  1.815780E-02 -6.134360E-03
       156  2.417631E-02  1.210537E-02 -4.577033E-03
       157  2.420033E-02  6.076836E-03 -3.089610E-03
       158  2.421396E-02  1.210537E-02 -3.126609E-03
       159  2.420033E-02  1.813390E-02 -3.089610E-03
       160  2.421274E-02  1.210537E-02 -1.557690E-03
       161  1.210537E-02  2.421274E-02  1.557690E-03
       162  1.813390E-02  2.420033E-02  3.089610E-03
       163  1.210537E-02  2.421396E-02  3.126609E-03
       164  6.076836E-03  2.420033E-02  3.089610E-03
       165  1.210537E-02  2.417631E-02  4.577033E-03
       166  1.815780E-02  2.411970E-02  6.134360E-03
       167  1.210537E-02  2.411041E-02  6.044700E-03
       168  6.052930E-03  2.411970E-02  6.134360E-03
       169  1.210537E-02  2.448305E-02  7.833798E-03
       170  1.647501E-02  2.082316E-02  1.147811E-02
       171  1.210537E-02  2.086618E-02  1.104336E-02
       172  7.735721E-03  2.082316E-02  1.147811E-02
       173  1.210537E-02  1.565013E-02  5.833511E-03
       174  1.314830E-02  1.435721E-02 -1.169692E-15
       175  1.210537E-02  1.425791E-02 -1.139151E-15
       176  1.106243E-02  1.435721E-02 -1.107729E-15
       177  1.210537E-02  1.565013E-02 -5.833511E-03
       178  1.647501E-02  2.082316E-02 -1.147811E-02
       179  1.210537E-02  2.086618E-02 -1.104336E-02
       180  7.735721E-03  2.082316E-02 -1.147811E-02
       181  1.210537E-02  2.448305E-02 -7.833798E-03
       182  1.815780E-02  2.411970E-02 -6.134360E-03
       183  1.210537E-02  2.411041E-02 -6.044700E-03
       184  6.052930E-03  2.411970E-02 -6.134360E-03
       185  1.210537E-02  2.417631E-02 -4.577033E-03
       186  1.813390E-02  2.420033E-02 -3.089610E-03
       187  1.210537E-02  2.421396E-02 -3.126609E-03
       188  6.076836E-03  2.420033E-02 -3.089610E-03
       189  1.210537E-02  2.421274E-02 -1.557690E-03
       190 -2.006686E-06  1.210537E-02  1.557690E-03
       191  1.040152E-05  1.813390E-02  3.089610E-03
       192 -3.227961E-06  1.210537E-02  3.126609E-03
       193  1.040152E-05  6.076836E-03  3.089610E-03
       194  3.442510E-05  1.210537E-02  4.577033E-03
       195  9.103555E-05  1.815780E-02  6.134360E-03
       196  1.003244E-04  1.210537E-02  6.044700E-03
       197  9.103555E-05  6.052930E-03  6.134360E-03
       198 -2.723167E-04  1.210537E-02  7.833798E-03
       199  3.387572E-03  1.647501E-02  1.147811E-02
       200  3.344554E-03  1.210537E-02  1.104336E-02
       201  3.387572E-03  7.735721E-03  1.147811E-02
       202  8.560605E-03  1.210537E-02  5.833511E-03
       203  9.853526E-03  1.314830E-02 -5.213448E-16
       204  9.952826E-03  1.210537E-02  9.879792E-17
       205  9.853526E-03  1.106243E-02  7.075503E-16
       206  8.560605E-03  1.210537E-02 -5.833511E-03
       207  3.387572E-03  1.647501E-02 -1.147811E-02
       208  3.344554E-03  1.210537E-02 -1.104336E-02
       209  3.387572E-03  7.735721E-03 -1.147811E-02
       210 -2.723167E-04  1.210537E-02 -7.833798E-03
       211  9.103555E-05  1.815780E-02 -6.134360E-03
       212  1.003244E-04  1.210537E-02 -6.044700E-03
       213  9.103555E-05  6.052930E-03 -6.134360E-03
       214  3.442510E-05  1.210537E-02 -4.577033E-03
       215  1.040152E-05  1.813390E-02 -3.089610E-03
       216 -3.227961E-06  1.210537E-02 -3.126609E-03
       217  1.040152E-05  6.076836E-03 -3.089610E-03
       218 -2.006686E-06  1.210537E-02 -1.557690E-03
       219  1.210537E-02  1.210537E-02  1.550797E-03
       220  1.210537E-02  6.064273E-03  3.099967E-03
       221  6.064273E-03  1.210537E-02  3.099967E-03
       222  1.210537E-02  1.210537E-02  3.136759E-03
       223  1.814646E-02  1.210537E-02  3.099967E-03
       224  1.210537E-02  1.814646E-02  3.099967E-03
       225  1.210537E-02  1.210537E-02  4.598185E-03
       226  1.210537E-02  6.065685E-03  6.227102E-03
       227  6.065685E-03  1.210537E-02  6.227102E-03
       228  1.210537E-02  1.210537E-02  6.150004E-03
       229  1.814505E-02  1.210537E-02  6.227102E-03
       230  1.210537E-02  1.814505E-02  6.227102E-03
       231  1.210537E-02  1.210537E-02  6.923013E-03
       232  1.210537E-02  7.722511E-03  9.164671E-03
       233  7.722511E-03  1.210537E-02  9.164671E-03
       234  1.210537E-02  1.210537E-02  8.710894E-03
       235  1.648822E-02  1.210537E-02  9.164671E-03
       236  1.210537E-02  1.648822E-02  9.164671E-03
       237  1.210537E-02  1.210537E-02  4.296879E-03
       238  1.210537E-02  1.109408E-02  6.604282E-16
       239  1.109408E-02  1.210537E-02  7.459438E-17
       240  1.210537E-02  1.210537E-02  7.206556E-17
       241  1.311665E-02  1.210537E-02  4.414633E-17
       242  1.210537E-02  1.311665E-02 -5.301274E-16
       243  1.210537E-02  1.210537E-02 -4.296879E-03
       244  1.210537E-02  7.722511E-03 -9.164671E-03
       245  7.722511E-03  1.210537E-02 -9.164671E-03
       246  1.210537E-02  1.210537E-02 -8.710894E-03
       247  1.648822E-02  1.210537E-02 -9.164671E-03
       248  1.210537E-02  1.648822E-02 -9.164671E-03
       249  1.210537E-02  1.210537E-02 -6.923013E-03
       250  1.210537E-02  6.065685E-03 -6.227102E-03
       251  6.065685E-03  1.210537E-02 -6.227102E-03
       252  1.210537E-02  1.210537E-02 -6.150004E-03
       253  1.814505E-02  1.210537E-02 -6.227102E-03
       254  1.210537E-02  1.814505E-02 -6.227102E-03
       255  1.210537E-02  1.210537E-02 -4.598185E-03
       256  1.210537E-02  6.064273E-03 -3.099967E-03
       257  6.064273E-03  1.210537E-02 -3.099967E-03
       258  1.210537E-02  1.210537E-02 -3.136759E-03
       259  1.814646E-02  1.210537E-02 -3.099967E-03
       260  1.210537E-02  1.814646E-02 -3.099967E-03
       261  1.210537E-02  1.210537E-02 -1.550797E-03

 stresses (elem, integ.pnt.,sxx,syy,szz,sxy,sxz,syz) for set EALL and time  0.1000000E+01

         1   1 -4.307004E+00 -4.307004E+00 -2.513512E+03 -9.992388E-01 -1.618026E+00 -1.618026E+00
         1   2  8.534736E-02 -3.521930E+00 -2.517948E+03  1.323495E-01  4.724592E-01 -1.424080E+00
         1   3  6.891733E+00 -9.939295E-01 -2.516083E+03  1.039682E+00  7.825613E-01 -1.646825E+00
         1   4 -3.521930E+00  8.534736E-02 -2.517948E+03  1.323495E-01 -1.424080E+00  4.724592E-01
         1   5 -2.823568E-02 -2.823568E-02 -2.522541E+03  5.928303E-01  5.944536E-01  5.944536E-01
         1   6  6.089084E+00  1.810699E+00 -2.520337E+03  8.290548E-01  9.929404E-01  5.176870E-01
         1   7 -9.939295E-01  6.891733E+00 -2.516083E+03  1.039682E+00 -1.646825E+00  7.825613E-01
         1   8  1.810699E+00  6.089084E+00 -2.520337E+03  8.290548E-01  5.176870E-01  9.929404E-01
         1   9  7.455074E+00  7.455074E+00 -2.517297E+03  3.941718E-01  1.222490E+00  1.222490E+00
         1  10  7.993050E+00  7.993050E+00 -2.513135E+03 -1.938927E-01 -5.446123E+00 -5.446123E+00
         1  11  2.042308E+00  4.906236E+00 -2.517319E+03 -4.436191E-01  1.017523E-01 -5.814425E+00
         1  12 -8.438734E-01  5.084600E+00 -2.514551E+03 -5.969279E-01  3.869245E+00 -6.315610E+00
         1  13  4.906236E+00  2.042308E+00 -2.517319E+03 -4.436191E-01 -5.814425E+00  1.017523E-01
         1  14 -9.183388E-01 -9.183388E-01 -2.522045E+03 -4.927292E-01  8.955837E-02  8.955837E-02
         1  15 -3.465233E+00 -4.006882E-01 -2.519320E+03 -4.454217E-01  4.373496E+00  1.624121E-01
         1  16  5.084600E+00 -8.438734E-01 -2.514551E+03 -5.969279E-01 -6.315610E+00  3.869245E+00
         1  17 -4.006882E-01 -3.465233E+00 -2.519320E+03 -4.454217E-01  1.624121E-01  4.373496E+00
         1  18 -2.395702E+00 -2.395702E+00 -2.516144E+03 -1.974980E-01  5.180725E+00  5.180725E+00
         1  19  1.599033E+01  1.599033E+01 -2.515340E+03 -7.104619E-01 -5.799954E+00 -5.799954E+00
         1  20  1.259841E-01  1.003812E+01 -2.518842E+03 -2.053000E+00  3.205313E+00 -7.499543E+00
         1  21 -1.201674E+01  8.879875E+00 -2.514734E+03 -2.978448E+00  1.043020E+01 -9.048208E+00
         1  22  1.003812E+01  1.259841E-01 -2.518842E+03 -2.053000E+00 -7.499543E+00  3.205313E+00
         1  23 -4.671704E+00 -4.671704E+00 -2.523267E+03 -2.323199E+00  2.289891E+00  2.289891E+00
         1  24 -1.545032E+01 -4.465842E+00 -2.519589E+03 -2.176306E+00  1.045928E+01  1.743324E+00
         1  25  8.879875E+00 -1.201674E+01 -2.514734E+03 -2.978448E+00 -9.048208E+00  1.043020E+01
         1  26 -4.465842E+00 -1.545032E+01 -2.519589E+03 -2.176306E+00  1.743324E+00  1.045928E+01
         1  27 -1.366423E+01 -1.366423E+01 -2.515841E+03 -9.570730E-01  1.107515E+01  1.107515E+01
         2   1  6.891733E+00 -9.939295E-01 -2.516083E+03 -1.039682E+00 -7.825613E-01 -1.646825E+00
         2   2  8.534736E-02 -3.521930E+00 -2.517948E+03 -1.323495E-01 -4.724592E-01 -1.424080E+00
         2   3 -4.307004E+00 -4.307004E+00 -2.513512E+03  9.992388E-01  1.618026E+00 -1.618026E+00
         2   4  6.089084E+00  1.810699E+00 -2.520337E+03 -8.290548E-01 -9.929404E-01  5.176870E-01
         2   5 -2.823568E-02 -2.823568E-02 -2.522541E+03 -5.928303E-01 -5.944536E-01  5.944536E-01
         2   6 -3.521930E+00  8.534736E-02 -2.517948E+03 -1.323495E-01  1.424080E+00  4.724592E-01
         2   7  7.455074E+00  7.455074E+00 -2.517297E+03 -3.941718E-01 -1.222490E+00  1.222490E+00
         2   8  1.810699E+00  6.089084E+00 -2.520337E+03 -8.290548E-01 -5.176870E-01  9.929404E-01
         2   9 -9.939295E-01  6.891733E+00 -2.516083E+03 -1.039682E+00  1.646825E+00  7.825613E-01
         2  10 -8.438734E-01  5.084600E+00 -2.514551E+03  5.969279E-01 -3.869245E+00 -6.315610E+00
         2  11  2.042308E+00  4.906236E+00 -2.517319E+03  4.436191E-01 -1.017523E-01 -5.814425E+00
         2  12  7.993050E+00  7.993050E+00 -2.513135E+03  1.938927E-01  5.446123E+00 -5.446123E+00
         2  13 -3.465233E+00 -4.006882E-01 -2.519320E+03  4.454217E-01 -4.373496E+00  1.624121E-01
         2  14 -9.183388E-01 -9.183388E-01 -2.522045E+03  4.927292E-01 -8.955837E-02  8.955837E-02
         2  15  4.906236E+00  2.042308E+00 -2.517319E+03  4.436191E-01  5.814425E+00  1.017523E-01
         2  16 -2.395702E+00 -2.395702E+00 -2.516144E+03  1.974980E-01 -5.180725E+00  5.180725E+00
         2  17 -4.006882E-01 -3.465233E+00 -2.519320E+03  4.454217E-01 -1.624121E-01  4.373496E+00
         2  18  5.084600E+00 -8.438734E-01 -2.514551E+03  5.969279E-01  6.315610E+00  3.869245E+00
         2  19 -1.201674E+01  8.879875E+00 -2.514734E+03  2.978448E+00 -1.043020E+01 -9.048208E+00
         2  20  1.259841E-01  1.003812E+01 -2.518842E+03  2.053000E+00 -3.205313E+00 -7.499543E+00
         2  21  1.599033E+01  1.599033E+01 -2.515340E+03  7.104619E-01  5.799954E+00 -5.799954E+00
         2  22 -1.545032E+01 -4.465842E+00 -2.519589E+03  2.176306E+00 -1.045928E+01  1.743324E+00
         2  23 -4.671704E+00 -4.671704E+00 -2.523267E+03  2.323199E+00 -2.289891E+00  2.289891E+00
         2  24  1.003812E+01  1.259841E-01 -2.518842E+03  2.053000E+00  7.499543E+00  3.205313E+00
         2  25 -1.366423E+01 -1.366423E+01 -2.515841E+03  9.570730E-01 -1.107515E+01  1.107515E+01
         2  26 -4.465842E+00 -1.545032E+01 -2.519589E+03  2.176306E+00 -1.743324E+00  1.045928E+01
         2  27  8.879875E+00 -1.201674E+01 -2.514734E+03  2.978448E+00  9.048208E+00  1.043020E+01
         3   1 -9.939295E-01  6.891733E+00 -2.516083E+03 -1.039682E+00 -1.646825E+00 -7.825613E-01
         3   2  1.810699E+00  6.089084E+00 -2.520337E+03 -8.290548E-01  5.176870E-01 -9.929404E-01
         3   3  7.455074E+00  7.455074E+00 -2.517297E+03 -3.941718E-01  1.222490E+00 -1.222490E+00
         3   4 -3.521930E+00  8.534736E-02 -2.517948E+03 -1.323495E-01 -1.424080E+00 -4.724592E-01
         3   5 -2.823568E-02 -2.823568E-02 -2.522541E+03 -5.928303E-01  5.944536E-01 -5.944536E-01
         3   6  6.089084E+00  1.810699E+00 -2.520337E+03 -8.290548E-01  9.929404E-01 -5.176870E-01
         3   7 -4.307004E+00 -4.307004E+00 -2.513512E+03  9.992388E-01 -1.618026E+00  1.618026E+00
         3   8  8.534736E-02 -3.521930E+00 -2.517948E+03 -1.323495E-01  4.724592E-01  1.424080E+00
         3   9  6.891733E+00 -9.939295E-01 -2.516083E+03 -1.039682E+00  7.825613E-01  1.646825E+00
         3  10  5.084600E+00 -8.438734E-01 -2.514551E+03  5.969279E-01 -6.315610E+00 -3.869245E+00
         3  11 -4.006882E-01 -3.465233E+00 -2.519320E+03  4.454217E-01  1.624121E-01 -4.373496E+00
         3  12 -2.395702E+00 -2.395702E+00 -2.516144E+03  1.974980E-01  5.180725E+00 -5.180725E+00
         3  13  4.906236E+00  2.042308E+00 -2.517319E+03  4.436191E-01 -5.814425E+00 -1.017523E-01
         3  14 -9.183388E-01 -9.183388E-01 -2.522045E+03  4.927292E-01  8.955837E-02 -8.955837E-02
         3  15 -3.465233E+00 -4.006882E-01 -2.519320E+03  4.454217E-01  4.373496E+00 -1.624121E-01
         3  16  7.993050E+00  7.993050E+00 -2.513135E+03  1.938927E-01 -5.446123E+00  5.446123E+00
         3  17  2.042308E+00  4.906236E+00 -2.517319E+03  4.436191E-01  1.017523E-01  5.814425E+00
         3  18 -8.438734E-01  5.084600E+00 -2.514551E+03  5.969279E-01  3.869245E+00  6.315610E+00
         3  19  8.879875E+00 -1.201674E+01 -2.514734E+03  2.978448E+00 -9.048208E+00 -1.043020E+01
         3  20 -4.465842E+00 -1.545032E+01 -2.519589E+03  2.176306E+00  1.743324E+00 -1.045928E+01
         3  21 -1.366423E+01 -1.366423E+01 -2.515841E+03  9.570730E-01  1.107515E+01 -1.107515E+01
         3  22  1.003812E+01  1.259841E-01 -2.518842E+03  2.053000E+00 -7.499543E+00 -3.205313E+00
         3  23 -4.671704E+00 -4.671704E+00 -2.523267E+03  2.323199E+00  2.289891E+00 -2.289891E+00
         3  24 -1.545032E+01 -4.465842E+00 -2.519589E+03  2.176306E+00  1.045928E+01 -1.743324E+00
         3  25  1.599033E+01  1.599033E+01 -2.515340E+03  7.104619E-01 -5.799954E+00  5.799954E+00
         3  26  1.259841E-01  1.003812E+01 -2.518842E+03  2.053000E+00  3.205313E+00  7.499543E+00
         3  27 -1.201674E+01  8.879875E+00 -2.514734E+03  2.978448E+00  1.043020E+01  9.048208E+00
         4   1  7.455074E+00  7.455074E+00 -2.517297E+03  3.941718E-01 -1.222490E+00 -1.222490E+00
         4   2  1.810699E+00  6.089084E+00 -2.520337E+03  8.290548E-01 -5.176870E-01 -9.929404E-01
         4   3 -9.939295E-01  6.891733E+00 -2.516083E+03  1.039682E+00  1.646825E+00 -7.825613E-01
         4   4  6.089084E+00  1.810699E+00 -2.520337E+03  8.290548E-01 -9.929404E-01 -5.176870E-01
         4   5 -2.823568E-02 -2.823568E-02 -2.522541E+03  5.928303E-01 -5.944536E-01 -5.944536E-01
         4   6 -3.521930E+00  8.534736E-02 -2.517948E+03  1.323495E-01  1.424080E+00 -4.724592E-01
         4   7  6.891733E+00 -9.939295E-01 -2.516083E+03  1.039682E+00 -7.825613E-01  1.646825E+00
         4   8  8.534736E-02 -3.521930E+00 -2.517948E+03  1.323495E-01 -4.724592E-01  1.424080E+00
         4   9 -4.307004E+00 -4.307004E+00 -2.513512E+03 -9.992388E-01  1.618026E+00  1.618026E+00
         4  10 -2.395702E+00 -2.395702E+00 -2.516144E+03 -1.974980E-01 -5.180725E+00 -5.180725E+00
         4  11 -4.006882E-01 -3.465233E+00 -2.519320E+03 -4.454217E-01 -1.624121E-01 -4.373496E+00
         4  12  5.084600E+00 -8.438734E-01 -2.514551E+03 -5.969279E-01  6.315610E+00 -3.869245E+00
         4  13 -3.465233E+00 -4.006882E-01 -2.519320E+03 -4.454217E-01 -4.373496E+00 -1.624121E-01
         4  14 -9.183388E-01 -9.183388E-01 -2.522045E+03 -4.927292E-01 -8.955837E-02 -8.955837E-02
         4  15  4.906236E+00  2.042308E+00 -2.517319E+03 -4.436191E-01  5.814425E+00 -1.017523E-01
         4  16 -8.438734E-01  5.084600E+00 -2.514551E+03 -5.969279E-01 -3.869245E+00  6.315610E+00
         4  17  2.042308E+00  4.906236E+00 -2.517319E+03 -4.436191E-01 -1.017523E-01  5.814425E+00
         4  18  7.993050E+00  7.993050E+00 -2.513135E+03 -1.938927E-01  5.446123E+00  5.446123E+00
         4  19 -1.366423E+01 -1.366423E+01 -2.515841E+03 -9.570730E-01 -1.107515E+01 -1.107515E+01
         4  20 -4.465842E+00 -1.545032E+01 -2.519589E+03 -2.176306E+00 -1.743324E+00 -1.045928E+01
         4  21  8.879875E+00 -1.201674E+01 -2.514734E+03 -2.978448E+00  9.048208E+00 -1.043020E+01
         4  22 -1.545032E+01 -4.465842E+00 -2.519589E+03 -2.176306E+00 -1.045928E+01 -1.743324E+00
         4  23 -4.671704E+00 -4.671704E+00 -2.523267E+03 -2.323199E+00 -2.289891E+00 -2.289891E+00
         4  24  1.003812E+01  1.259841E-01 -2.518842E+03 -2.053000E+00  7.499543E+00 -3.205313E+00
         4  25 -1.201674E+01  8.879875E+00 -2.514734E+03 -2.978448E+00 -1.043020E+01  9.048208E+00
         4  26  1.259841E-01  1.003812E+01 -2.518842E+03 -2.053000E+00 -3.205313E+00  7.499543E+00
         4  27  1.599033E+01  1.599033E+01 -2.515340E+03 -7.104619E-01  5.799954E+00  5.799954E+00
         5   1  4.953599E+00  4.953599E+00 -2.531602E+03  1.455829E+00 -5.930802E+00 -5.930802E+00
         5   2  1.084129E+00  7.142390E+00 -2.516911E+03 -1.398836E-01 -2.811214E+00 -5.056902E+00
         5   3 -1.730121E+01 -4.230168E+00 -2.537047E+03 -1.449638E+00  4.794843E+00 -3.073572E+00
         5   4  7.142390E+00  1.084129E+00 -2.516911E+03 -1.398836E-01 -5.056902E+00 -2.811214E+00
         5   5  4.974446E+00  4.974446E+00 -2.500731E+03 -7.810775E-01 -2.301858E+00 -2.301858E+00
         5   6 -1.262641E+01 -5.613629E+00 -2.521512E+03 -1.136313E+00  4.554002E+00 -1.002223E+00
         5   7 -4.230168E+00 -1.730121E+01 -2.537047E+03 -1.449638E+00 -3.073572E+00  4.794843E+00
         5   8 -5.613629E+00 -1.262641E+01 -2.521512E+03 -1.136313E+00 -1.002223E+00  4.554002E+00
         5   9 -2.334051E+01 -2.334051E+01 -2.545069E+03 -5.370295E-01  4.784285E+00  4.784285E+00
         5  10 -4.001343E+01 -4.001343E+01 -2.553710E+03  4.997651E+00  2.311578E+01  2.311578E+01
         5  11 -1.247483E+01 -2.477967E+01 -2.525138E+03  4.589188E+00  2.871984E+00  2.396768E+01
         5  12 -4.128232E-01 -2.534459E+01 -2.532354E+03  3.695373E+00 -1.288534E+01  2.471065E+01
         5  13 -2.477967E+01 -1.247483E+01 -2.525138E+03  4.589188E+00  2.396768E+01  2.871984E+00
         5  14  2.178207E+00  2.178207E+00 -2.493715E+03  3.858630E+00  3.032302E+00  3.032302E+00
         5  15  1.274597E+01  1.190389E-01 -2.500211E+03  2.642718E+00 -1.380226E+01  2.764528E+00
         5  16 -2.534459E+01 -4.128232E-01 -2.532354E+03  3.695373E+00  2.471065E+01 -1.288534E+01
         5  17  1.190389E-01  1.274597E+01 -2.500211E+03  2.642718E+00  2.764528E+00 -1.380226E+01
         5  18  8.278518E+00  8.278518E+00 -2.508120E+03  1.104711E+00 -1.546643E+01 -1.546643E+01
         5  19 -1.155027E+02 -1.155027E+02 -2.594131E+03  3.713802E-01  5.258110E+01  5.258110E+01
         5  20 -5.388527E+01 -8.098790E+01 -2.549007E+03  2.932820E+00  8.973928E+00  5.551243E+01
         5  21 -8.698678E+00 -6.450264E+01 -2.540625E+03  4.237597E+00 -3.014678E+01  5.711644E+01
         5  22 -8.098790E+01 -5.388527E+01 -2.549007E+03  2.932820E+00  5.551243E+01  8.973928E+00
         5  23 -2.222997E+01 -2.222997E+01 -2.499667E+03  3.895548E+00  1.088662E+01  1.088662E+01
         5  24  1.918013E+01 -9.521212E+00 -2.489204E+03  3.601614E+00 -2.963837E+01  1.115286E+01
         5  25 -6.450264E+01 -8.698678E+00 -2.540625E+03  4.237597E+00  5.711644E+01 -3.014678E+01
         5  26 -9.521212E+00  1.918013E+01 -2.489204E+03  3.601614E+00  1.115286E+01 -2.963837E+01
         5  27  2.720187E+01  2.720187E+01 -2.478788E+03  1.708968E+00 -3.109557E+01 -3.109557E+01
         6   1 -1.730121E+01 -4.230168E+00 -2.537047E+03  1.449638E+00 -4.794843E+00 -3.073572E+00
         6   2  1.084129E+00  7.142390E+00 -2.516911E+03  1.398836E-01  2.811214E+00 -5.056902E+00
         6   3  4.953599E+00  4.953599E+00 -2.531602E+03 -1.455829E+00  5.930802E+00 -5.930802E+00
         6   4 -1.262641E+01 -5.613629E+00 -2.521512E+03  1.136313E+00 -4.554002E+00 -1.002223E+00
         6   5  4.974446E+00  4.974446E+00 -2.500731E+03  7.810775E-01  2.301858E+00 -2.301858E+00
         6   6  7.142390E+00  1.084129E+00 -2.516911E+03  1.398836E-01  5.056902E+00 -2.811214E+00
         6   7 -2.334051E+01 -2.334051E+01 -2.545069E+03  5.370295E-01 -4.784285E+00  4.784285E+00
         6   8 -5.613629E+00 -1.262641E+01 -2.521512E+03  1.136313E+00  1.002223E+00  4.554002E+00
         6   9 -4.230168E+00 -1.730121E+01 -2.537047E+03  1.449638E+00  3.073572E+00  4.794843E+00
         6  10 -4.128232E-01 -2.534459E+01 -2.532354E+03 -3.695373E+00  1.288534E+01  2.471065E+01
         6  11 -1.247483E+01 -2.477967E+01 -2.525138E+03 -4.589188E+00 -2.871984E+00  2.396768E+01
         6  12 -4.001343E+01 -4.001343E+01 -2.553710E+03 -4.997651E+00 -2.311578E+01  2.311578E+01
         6  13  1.274597E+01  1.190389E-01 -2.500211E+03 -2.642718E+00  1.380226E+01  2.764528E+00
         6  14  2.178207E+00  2.178207E+00 -2.493715E+03 -3.858630E+00 -3.032302E+00  3.032302E+00
         6  15 -2.477967E+01 -1.247483E+01 -2.525138E+03 -4.589188E+00 -2.396768E+01  2.871984E+00
         6  16  8.278518E+00  8.278518E+00 -2.508120E+03 -1.104711E+00  1.546643E+01 -1.546643E+01
         6  17  1.190389E-01  1.274597E+01 -2.500211E+03 -2.642718E+00 -2.764528E+00 -1.380226E+01
         6  18 -2.534459E+01 -4.128232E-01 -2.532354E+03 -3.695373E+00 -2.471065E+01 -1.288534E+01
         6  19 -8.698678E+00 -6.450264E+01 -2.540625E+03 -4.237597E+00  3.014678E+01  5.711644E+01
         6  20 -5.388527E+01 -8.098790E+01 -2.549007E+03 -2.932820E+00 -8.973928E+00  5.551243E+01
         6  21 -1.155027E+02 -1.155027E+02 -2.594131E+03 -3.713802E-01 -5.258110E+01  5.258110E+01
         6  22  1.918013E+01 -9.521212E+00 -2.489204E+03 -3.601614E+00  2.963837E+01  1.115286E+01
         6  23 -2.222997E+01 -2.222997E+01 -2.499667E+03 -3.895548E+00 -1.088662E+01  1.088662E+01
         6  24 -8.098790E+01 -5.388527E+01 -2.549007E+03 -2.932820E+00 -5.551243E+01  8.973928E+00
         6  25  2.720187E+01  2.720187E+01 -2.478788E+03 -1.708968E+00  3.109557E+01 -3.109557E+01
         6  26 -9.521212E+00  1.918013E+01 -2.489204E+03 -3.601614E+00 -1.115286E+01 -2.963837E+01