
 displacements (vx,vy,vz) for set NALL and time  0.1000000E+01

         1  0.000000E+00  0.000000E+00  0.000000E+00
         2 -1.302171E-02  0.000000E+00  0.000000E+00
         3 -1.302171E-02 -1.302171E-02  0.000000E+00
         4 -8.105443E-15 -1.302171E-02  0.000000E+00
         5  9.117553E-10  9.117732E-10  2.279841E-01
         6 -1.302171E-02  9.118000E-10  2.279841E-01
         7 -1.302171E-02 -1.302171E-02  2.279841E-01
         8  9.117281E-10 -1.302171E-02  2.279841E-01
         9 -3.255428E-03  2.803408E-14  0.000000E+00
        10 -6.510857E-03  7.665643E-14  0.000000E+00
        11 -9.766285E-03  3.055105E-14  0.000000E+00
        12 -1.302171E-02 -3.255428E-03  0.000000E+00
        13 -1.302171E-02 -6.510857E-03  0.000000E+00
        14 -1.302171E-02 -9.766285E-03  0.000000E+00
        15 -9.766285E-03 -1.302171E-02  0.000000E+00
        16 -6.510857E-03 -1.302171E-02  0.000000E+00
        17 -3.255428E-03 -1.302171E-02  0.000000E+00
        18  2.290747E-14 -9.766285E-03  0.000000E+00
        19  7.261179E-14 -6.510857E-03  0.000000E+00
        20  2.788995E-14 -3.255428E-03  0.000000E+00
        21 -3.255428E-03  9.385666E-10  2.279841E-01
        22 -6.510857E-03  9.020098E-10  2.279841E-01
        23 -9.766286E-03  9.385800E-10  2.279841E-01
        24 -1.302171E-02 -3.255428E-03  2.279841E-01
        25 -1.302171E-02 -6.510857E-03  2.279841E-01
        26 -1.302171E-02 -9.766286E-03  2.279841E-01
        27 -9.766286E-03 -1.302171E-02  2.279841E-01
        28 -6.510857E-03 -1.302171E-02  2.279841E-01
        29 -3.255428E-03 -1.302171E-02  2.279841E-01
        30  9.385215E-10 -9.766286E-03  2.279841E-01
        31  9.019648E-10 -6.510857E-03  2.279841E-01
        32  9.385351E-10 -3.255428E-03  2.279841E-01
        33 -1.302171E-02 -2.285285E-15  1.424900E-02
        34 -1.302171E-02 -1.325147E-13  2.849801E-02
        35 -1.302171E-02 -3.938218E-14  4.274701E-02
        36 -1.302171E-02  9.005360E-15  5.699601E-02
        37 -1.302171E-02  3.873309E-13  7.124502E-02
        38 -1.302171E-02 -8.679482E-13  8.549402E-02
        39 -1.302171E-02 -9.443555E-13  9.974303E-02
        40 -1.302171E-02 -4.934557E-13  1.139920E-01
        41 -1.302171E-02  6.075234E-12  1.282410E-01
        42 -1.302171E-02 -8.015511E-12  1.424900E-01
        43 -1.302171E-02 -1.412162E-11  1.567390E-01
        44 -1.302171E-02 -9.014183E-12  1.709880E-01
        45 -1.302171E-02  8.827980E-11  1.852370E-01
        46 -1.302171E-02 -6.149435E-11  1.994861E-01
        47 -1.302171E-02 -2.181441E-10  2.137351E-01
        48 -2.181893E-10 -2.181709E-10  2.137351E-01
        49 -6.153934E-11 -6.152065E-11  1.994861E-01
        50  8.823521E-11  8.825409E-11  1.852370E-01
        51 -9.057923E-12 -9.039267E-12  1.709880E-01
        52 -1.416354E-11 -1.414592E-11  1.567390E-01
        53 -8.055055E-12 -8.039016E-12  1.424900E-01
        54  6.038811E-12  6.052738E-12  1.282410E-01
        55 -5.261561E-13 -5.147258E-13  1.139920E-01
        56 -9.728699E-13 -9.644733E-13  9.974303E-02
        57 -8.916480E-13 -8.864821E-13  8.549402E-02
        58  3.681999E-13  3.701130E-13  7.124502E-02
        59 -5.016289E-15 -6.012991E-15  5.699601E-02
        60 -4.968577E-14 -5.404534E-14  4.274701E-02
        61 -1.386468E-13 -1.447929E-13  2.849801E-02
        62 -7.024679E-15 -1.235944E-14  1.424900E-02
        63 -1.302171E-02 -1.302171E-02  1.424900E-02
        64 -1.302171E-02 -1.302171E-02  2.849801E-02
        65 -1.302171E-02 -1.302171E-02  4.274701E-02
        66 -1.302171E-02 -1.302171E-02  5.699601E-02
        67 -1.302171E-02 -1.302171E-02  7.124502E-02
        68 -1.302171E-02 -1.302171E-02  8.549402E-02
        69 -1.302171E-02 -1.302171E-02  9.974303E-02
        70 -1.302171E-02 -1.302171E-02  1.139920E-01
        71 -1.302171E-02 -1.302171E-02  1.282410E-01
        72 -1.302171E-02 -1.302171E-02  1.424900E-01
        73 -1.302171E-02 -1.302171E-02  1.567390E-01
        74 -1.302171E-02 -1.302171E-02  1.709880E-01
        75 -1.302171E-02 -1.302171E-02  1.852370E-01
        76 -1.302171E-02 -1.302171E-02  1.994861E-01
        77 -1.302171E-02 -1.302171E-02  2.137351E-01
        78 -1.669514E-14 -1.302171E-02  1.424900E-02
        79 -1.509376E-13 -1.302171E-02  2.849801E-02
        80 -6.343123E-14 -1.302171E-02  4.274701E-02
        81 -2.038726E-14 -1.302171E-02  5.699601E-02
        82  3.511769E-13 -1.302171E-02  7.124502E-02
        83 -9.103729E-13 -1.302171E-02  8.549402E-02
        84 -9.930020E-13 -1.302171E-02  9.974303E-02
        85 -5.476245E-13 -1.302171E-02  1.139920E-01
        86  6.016188E-12 -1.302171E-02  1.282410E-01
        87 -8.078603E-12 -1.302171E-02  1.424900E-01
        88 -1.418803E-11 -1.302171E-02  1.567390E-01
        89 -9.083115E-12 -1.302171E-02  1.709880E-01
        90  8.820927E-11 -1.302171E-02  1.852370E-01
        91 -6.156600E-11 -1.302171E-02  1.994861E-01
        92 -2.182161E-10 -1.302171E-02  2.137351E-01
        93 -6.510857E-03 -3.255428E-03  0.000000E+00
        94 -3.255428E-03 -6.510857E-03  0.000000E+00
        95 -6.510857E-03 -6.510857E-03  0.000000E+00
        96 -9.766285E-03 -6.510857E-03  0.000000E+00
        97 -6.510857E-03 -9.766285E-03  0.000000E+00
        98 -6.510857E-03 -3.255428E-03  2.279841E-01
        99 -3.255428E-03 -6.510857E-03  2.279841E-01
       100 -6.510857E-03 -6.510857E-03  2.279841E-01
       101 -9.766285E-03 -6.510857E-03  2.279841E-01
       102 -6.510857E-03 -9.766285E-03  2.279841E-01
       103 -6.510857E-03 -1.790483E-14  1.424900E-02
       104 -3.255428E-03 -1.160281E-13  2.849801E-02
       105 -6.510857E-03 -1.084074E-13  2.849801E-02
       106 -9.766285E-03 -1.105262E-13  2.849801E-02
       107 -6.510857E-03 -1.311334E-13  4.274701E-02
       108 -3.255428E-03  1.511282E-13  5.699601E-02
       109 -6.510857E-03  3.329821E-13  5.699601E-02
       110 -9.766285E-03  1.588109E-13  5.699601E-02
       111 -6.510857E-03  2.652200E-13  7.124502E-02
       112 -3.255428E-03 -5.791186E-13  8.549402E-02
       113 -6.510857E-03 -2.694034E-13  8.549402E-02
       114 -9.766285E-03 -5.698940E-13  8.549402E-02
       115 -6.510857E-03 -1.623117E-12  9.974303E-02
       116 -3.255428E-03  1.121698E-12  1.139920E-01
       117 -6.510857E-03  2.620068E-12  1.139920E-01
       118 -9.766285E-03  1.132288E-12  1.139920E-01
       119 -6.510857E-03  4.005560E-12  1.282410E-01
       120 -3.255428E-03 -4.293153E-12  1.424900E-01
       121 -6.510857E-03  2.387393E-13  1.424900E-01
       122 -9.766285E-03 -4.281445E-12  1.424900E-01
       123 -6.510857E-03 -1.973840E-11  1.567390E-01
       124 -3.255428E-03  8.295100E-12  1.709880E-01
       125 -6.510857E-03  2.299405E-11  1.709880E-01
       126 -9.766285E-03  8.307611E-12  1.709880E-01
       127 -6.510857E-03  6.034499E-11  1.852370E-01
       128 -3.255428E-03  1.808817E-11  1.994861E-01
       129 -6.510857E-03  1.065329E-10  1.994861E-01
       130 -9.766285E-03  1.810137E-11  1.994861E-01
       131 -6.510857E-03 -4.093249E-10  2.137351E-01
       132 -1.302171E-02 -6.510857E-03  1.424900E-02
       133 -1.302171E-02 -3.255428E-03  2.849801E-02
       134 -1.302171E-02 -6.510857E-03  2.849801E-02
       135 -1.302171E-02 -9.766285E-03  2.849801E-02
       136 -1.302171E-02 -6.510857E-03  4.274701E-02
       137 -1.302171E-02 -3.255428E-03  5.699601E-02
       138 -1.302171E-02 -6.510857E-03  5.699601E-02
       139 -1.302171E-02 -9.766285E-03  5.699601E-02
       140 -1.302171E-02 -6.510857E-03  7.124502E-02
       141 -1.302171E-02 -3.255428E-03  8.549402E-02
       142 -1.302171E-02 -6.510857E-03  8.549402E-02
       143 -1.302171E-02 -9.766285E-03  8.549402E-02
       144 -1.302171E-02 -6.510857E-03  9.974303E-02
       145 -1.302171E-02 -3.255428E-03  1.139920E-01
       146 -1.302171E-02 -6.510857E-03  1.139920E-01
       147 -1.302171E-02 -9.766285E-03  1.139920E-01
       148 -1.302171E-02 -6.510857E-03  1.282410E-01
       149 -1.302171E-02 -3.255428E-03  1.424900E-01
       150 -1.302171E-02 -6.510857E-03  1.424900E-01
       151 -1.302171E-02 -9.766285E-03  1.424900E-01
       152 -1.302171E-02 -6.510857E-03  1.567390E-01
       153 -1.302171E-02 -3.255428E-03  1.709880E-01
       154 -1.302171E-02 -6.510857E-03  1.709880E-01
       155 -1.302171E-02 -9.766285E-03  1.709880E-01
       156 -1.302171E-02 -6.510857E-03  1.852370E-01
       157 -1.302171E-02 -3.255428E-03  1.994861E-01
       158 -1.302171E-02 -6.510857E-03  1.994861E-01
       159 -1.302171E-02 -9.766285E-03  1.994861E-01
       160 -1.302171E-02 -6.510857E-03  2.137351E-01
       161 -6.510857E-03 -1.302171E-02  1.424900E-02
       162 -9.766285E-03 -1.302171E-02  2.849801E-02
       163 -6.510857E-03 -1.302171E-02  2.849801E-02
       164 -3.255428E-03 -1.302171E-02  2.849801E-02
       165 -6.510857E-03 -1.302171E-02  4.274701E-02
       166 -9.766285E-03 -1.302171E-02  5.699601E-02
       167 -6.510857E-03 -1.302171E-02  5.699601E-02
       168 -3.255428E-03 -1.302171E-02  5.699601E-02
       169 -6.510857E-03 -1.302171E-02  7.124502E-02
       170 -9.766285E-03 -1.302171E-02  8.549402E-02
       171 -6.510857E-03 -1.302171E-02  8.549402E-02
       172 -3.255428E-03 -1.302171E-02  8.549402E-02
       173 -6.510857E-03 -1.302171E-02  9.974303E-02
       174 -9.766285E-03 -1.302171E-02  1.139920E-01
       175 -6.510857E-03 -1.302171E-02  1.139920E-01
       176 -3.255428E-03 -1.302171E-02  1.139920E-01
       177 -6.510857E-03 -1.302171E-02  1.282410E-01
       178 -9.766285E-03 -1.302171E-02  1.424900E-01
       179 -6.510857E-03 -1.302171E-02  1.424900E-01
       180 -3.255428E-03 -1.302171E-02  1.424900E-01
       181 -6.510857E-03 -1.302171E-02  1.567390E-01
       182 -9.766285E-03 -1.302171E-02  1.709880E-01
       183 -6.510857E-03 -1.302171E-02  1.709880E-01
       184 -3.255428E-03 -1.302171E-02  1.709880E-01
       185 -6.510857E-03 -1.302171E-02  1.852370E-01
       186 -9.766285E-03 -1.302171E-02  1.994861E-01
       187 -6.510857E-03 -1.302171E-02  1.994861E-01
       188 -3.255428E-03 -1.302171E-02  1.994861E-01
       189 -6.510857E-03 -1.302171E-02  2.137351E-01
       190 -2.256077E-14 -6.510857E-03  1.424900E-02
       191 -1.228325E-13 -9.766285E-03  2.849801E-02
       192 -1.151353E-13 -6.510857E-03  2.849801E-02
       193 -1.169032E-13 -3.255428E-03  2.849801E-02
       194 -1.411706E-13 -6.510857E-03  4.274701E-02
       195  1.367870E-13 -9.766285E-03  5.699601E-02
       196  3.185678E-13 -6.510857E-03  5.699601E-02
       197  1.445276E-13 -3.255428E-03  5.699601E-02
       198  2.462036E-13 -6.510857E-03  7.124502E-02
       199 -6.029808E-13 -9.766285E-03  8.549402E-02
       200 -2.932540E-13 -6.510857E-03  8.549402E-02
       201 -5.936639E-13 -3.255428E-03  8.549402E-02
       202 -1.651541E-12 -6.510857E-03  9.974303E-02
       203  1.088974E-12 -9.766285E-03  1.139920E-01
       204  2.587418E-12 -6.510857E-03  1.139920E-01
       205  1.099643E-12 -3.255428E-03  1.139920E-01
       206  3.969212E-12 -6.510857E-03  1.282410E-01
       207 -4.332661E-12 -9.766285E-03  1.424900E-01
       208  1.992831E-13 -6.510857E-03  1.424900E-01
       209 -4.320919E-12 -3.255428E-03  1.424900E-01
       210 -1.978028E-11 -6.510857E-03  1.567390E-01
       211  8.251457E-12 -9.766285E-03  1.709880E-01
       212  2.295056E-11 -6.510857E-03  1.709880E-01
       213  8.264113E-12 -3.255428E-03  1.709880E-01
       214  6.030045E-11 -6.510857E-03  1.852370E-01
       215  1.804311E-11 -9.766285E-03  1.994861E-01
       216  1.064879E-10 -6.510857E-03  1.994861E-01
       217  1.805637E-11 -3.255428E-03  1.994861E-01
       218 -4.093701E-10 -6.510857E-03  2.137351E-01
       219 -6.510857E-03 -6.510857E-03  1.424900E-02
       220 -6.510857E-03 -3.255428E-03  2.849801E-02
       221 -3.255428E-03 -6.510857E-03  2.849801E-02
       222 -6.510857E-03 -6.510857E-03  2.849801E-02
       223 -9.766285E-03 -6.510857E-03  2.849801E-02
       224 -6.510857E-03 -9.766285E-03  2.849801E-02
       225 -6.510857E-03 -6.510857E-03  4.274701E-02
       226 -6.510857E-03 -3.255428E-03  5.699601E-02
       227 -3.255428E-03 -6.510857E-03  5.699601E-02
       228 -6.510857E-03 -6.510857E-03  5.699601E-02
       229 -9.766285E-03 -6.510857E-03  5.699601E-02
       230 -6.510857E-03 -9.766285E-03  5.699601E-02
       231 -6.510857E-03 -6.510857E-03  7.124502E-02
       232 -6.510857E-03 -3.255428E-03  8.549402E-02
       233 -3.255428E-03 -6.510857E-03  8.549402E-02
       234 -6.510857E-03 -6.510857E-03  8.549402E-02
       235 -9.766285E-03 -6.510857E-03  8.549402E-02
       236 -6.510857E-03 -9.766285E-03  8.549402E-02
       237 -6.510857E-03 -6.510857E-03  9.974303E-02
       238 -6.510857E-03 -3.255428E-03  1.139920E-01
       239 -3.255428E-03 -6.510857E-03  1.139920E-01
       240 -6.510857E-03 -6.510857E-03  1.139920E-01
       241 -9.766285E-03 -6.510857E-03  1.139920E-01
       242 -6.510857E-03 -9.766285E-03  1.139920E-01
       243 -6.510857E-03 -6.510857E-03  1.282410E-01
       244 -6.510857E-03 -3.255428E-03  1.424900E-01
       245 -3.255428E-03 -6.510857E-03  1.424900E-01
       246 -6.510857E-03 -6.510857E-03  1.424900E-01
       247 -9.766285E-03 -6.510857E-03  1.424900E-01
       248 -6.510857E-03 -9.766285E-03  1.424900E-01
       249 -6.510857E-03 -6.510857E-03  1.567390E-01
       250 -6.510857E-03 -3.255428E-03  1.709880E-01
       251 -3.255428E-03 -6.510857E-03  1.709880E-01
       252 -6.510857E-03 -6.510857E-03  1.709880E-01
       253 -9.766285E-03 -6.510857E-03  1.709880E-01
       254 -6.510857E-03 -9.766285E-03  1.709880E-01
       255 -6.510857E-03 -6.510857E-03  1.852370E-01
       256 -6.510857E-03 -3.255428E-03  1.994861E-01
       257 -3.255428E-03 -6.510857E-03  1.994861E-01
       258 -6.510857E-03 -6.510857E-03  1.994861E-01
       259 -9.766285E-03 -6.510857E-03  1.994861E-01
       260 -6.510857E-03 -9.766285E-03  1.994861E-01
       261 -6.510857E-03 -6.510857E-03  2.137351E-01

 stresses (elem, integ.pnt.,sxx,syy,szz,sxy,sxz,syz) for set EALL and time  0.1000000E+01

         1   1 -1.158155E-01 -1.158155E-01  9.898645E+02 -2.102298E-09  6.360484E-09  6.292126E-09
         1   2 -1.158156E-01 -1.158156E-01  9.898645E+02 -1.798530E-09  4.343944E-09 -2.676605E-09
         1   3 -1.158156E-01 -1.158156E-01  9.898645E+02 -1.821819E-09 -2.673693E-09  4.314439E-09
         1   4 -1.158155E-01 -1.158155E-01  9.898645E+02 -2.166546E-09 -3.361050E-09 -3.364133E-09
         1   5 -1.158156E-01 -1.158156E-01  9.898645E+02  4.976175E-09  4.948032E-09  4.941459E-09
         1   6 -1.158155E-01 -1.158155E-01  9.898645E+02  4.299208E-09 -1.478861E-09  1.020057E-09
         1   7 -1.158155E-01 -1.158155E-01  9.898645E+02  4.293738E-09  1.002367E-09 -1.522244E-09
         1   8 -1.158156E-01 -1.158156E-01  9.898645E+02  4.381866E-09 -3.817535E-09 -3.818933E-09
         2   1 -1.158156E-01 -1.158156E-01  9.898645E+02  1.813534E-09 -4.319333E-09 -2.656616E-09
         2   2 -1.158155E-01 -1.158155E-01  9.898645E+02  2.051158E-09 -6.338138E-09  6.422725E-09
         2   3 -1.158155E-01 -1.158155E-01  9.898645E+02  2.162657E-09  3.357132E-09 -3.354837E-09
         2   4 -1.158156E-01 -1.158156E-01  9.898645E+02  1.778982E-09  2.655259E-09  4.356717E-09
         2   5 -1.158155E-01 -1.158155E-01  9.898645E+02 -4.284528E-09  1.525180E-09  9.988722E-10
         2   6 -1.158156E-01 -1.158156E-01  9.898645E+02 -4.963526E-09 -4.920463E-09  4.930739E-09
         2   7 -1.158156E-01 -1.158156E-01  9.898645E+02 -4.378990E-09  3.814396E-09 -3.811586E-09
         2   8 -1.158155E-01 -1.158155E-01  9.898645E+02 -4.292184E-09 -1.016274E-09 -1.476689E-09
         3   1 -1.158156E-01 -1.158156E-01  9.898645E+02  1.803804E-09 -2.670668E-09 -4.339406E-09
         3   2 -1.158155E-01 -1.158155E-01  9.898645E+02  2.153249E-09 -3.364763E-09  3.357356E-09
         3   3 -1.158155E-01 -1.158155E-01  9.898645E+02  2.077596E-09  6.349546E-09 -6.355327E-09
         3   4 -1.158156E-01 -1.158156E-01  9.898645E+02  1.798386E-09  4.326622E-09  2.664983E-09
         3   5 -1.158155E-01 -1.158155E-01  9.898645E+02 -4.293134E-09  1.003237E-09  1.473564E-09
         3   6 -1.158156E-01 -1.158156E-01  9.898645E+02 -4.382681E-09 -3.826306E-09  3.808355E-09
         3   7 -1.158156E-01 -1.158156E-01  9.898645E+02 -4.971119E-09  4.923594E-09 -4.944723E-09
         3   8 -1.158155E-01 -1.158155E-01  9.898645E+02 -4.295250E-09 -1.525514E-09 -1.009394E-09
         4   1 -1.158155E-01 -1.158155E-01  9.898645E+02 -2.183277E-09  3.353622E-09  3.364176E-09
         4   2 -1.158156E-01 -1.158156E-01  9.898645E+02 -1.803711E-09  2.656983E-09 -4.319758E-09
         4   3 -1.158156E-01 -1.158156E-01  9.898645E+02 -1.805703E-09 -4.338327E-09  2.665442E-09
         4   4 -1.158155E-01 -1.158155E-01  9.898645E+02 -2.075758E-09 -6.357735E-09 -6.352091E-09
         4   5 -1.158156E-01 -1.158156E-01  9.898645E+02  4.377111E-09  3.805539E-09  3.824721E-09
         4   6 -1.158155E-01 -1.158155E-01  9.898645E+02  4.291468E-09 -1.012673E-09  1.537016E-09
         4   7 -1.158155E-01 -1.158155E-01  9.898645E+02  4.288602E-09  1.478672E-09 -1.004859E-09
         4   8 -1.158156E-01 -1.158156E-01  9.898645E+02  4.968347E-09 -4.945489E-09 -4.917425E-09
         5   1 -1.158155E-01 -1.158155E-01  9.898645E+02 -9.484277E-11 -1.119233E-08 -1.120825E-08
         5   2 -1.158155E-01 -1.158155E-01  9.898645E+02  3.764702E-10 -1.161280E-08  4.917893E-09
         5   3 -1.158155E-01 -1.158155E-01  9.898645E+02  3.886745E-10  4.920802E-09 -1.164590E-08
         5   4 -1.158155E-01 -1.158155E-01  9.898645E+02  1.547250E-09  5.571372E-09  5.568069E-09
         5   5 -1.158155E-01 -1.158155E-01  9.898645E+02 -7.470872E-09 -1.572442E-08 -1.573262E-08
         5   6 -1.158156E-01 -1.158156E-01  9.898645E+02 -7.823071E-09  1.198414E-08 -4.440146E-09
         5   7 -1.158156E-01 -1.158156E-01  9.898645E+02 -7.823587E-09 -4.441895E-09  1.194739E-08
         5   8 -1.158155E-01 -1.158155E-01  9.898645E+02 -9.114406E-09  1.187423E-08  1.187046E-08
         6   1 -1.158155E-01 -1.158155E-01  9.898645E+02 -3.942459E-10  1.164746E-08  4.925397E-09
         6   2 -1.158155E-01 -1.158155E-01  9.898645E+02  9.514534E-11  1.119783E-08 -1.117640E-08
         6   3 -1.158155E-01 -1.158155E-01  9.898645E+02 -1.551088E-09 -5.567368E-09  5.575917E-09
         6   4 -1.158155E-01 -1.158155E-01  9.898645E+02 -3.797003E-10 -4.919837E-09 -1.160516E-08
         6   5 -1.158156E-01 -1.158156E-01  9.898645E+02  7.825546E-09 -1.195424E-08 -4.437759E-09
         6   6 -1.158155E-01 -1.158155E-01  9.898645E+02  7.471724E-09  1.573791E-08 -1.572531E-08
         6   7 -1.158155E-01 -1.158155E-01  9.898645E+02  9.112402E-09 -1.187350E-08  1.188056E-08
         6   8 -1.158156E-01 -1.158156E-01  9.898645E+02  7.825310E-09  4.441884E-09  1.199700E-08
         7   1 -1.158155E-01 -1.158155E-01  9.898645E+02 -3.852008E-10  4.919041E-09  1.161496E-08
         7   2 -1.158155E-01 -1.158155E-01  9.898645E+02 -1.547684E-09  5.561886E-09 -5.569504E-09
         7   3 -1.158155E-01 -1.158155E-01  9.898645E+02  9.508580E-11 -1.120799E-08  1.118425E-08
         7   4 -1.158155E-01 -1.158155E-01  9.898645E+02 -3.834062E-10 -1.165734E-08 -4.920987E-09
         7   5 -1.158156E-01 -1.158156E-01  9.898645E+02  7.824921E-09 -4.445459E-09 -1.199134E-08
         7   6 -1.158155E-01 -1.158155E-01  9.898645E+02  9.112438E-09  1.186587E-08 -1.187743E-08
         7   7 -1.158155E-01 -1.158155E-01  9.898645E+02  7.471183E-09 -1.574393E-08  1.572456E-08
         7   8 -1.158156E-01 -1.158156E-01  9.898645E+02  7.825582E-09  1.194132E-08  4.444712E-09
         8   1 -1.158155E-01 -1.158155E-01  9.898645E+02  1.550050E-09 -5.576038E-09 -5.565497E-09
         8   2 -1.158155E-01 -1.158155E-01  9.898645E+02  3.815435E-10 -4.920853E-09  1.164786E-08
         8   3 -1.158155E-01 -1.158155E-01  9.898645E+02  3.862224E-10  1.159931E-08 -4.917990E-09
         8   4 -1.158155E-01 -1.158155E-01  9.898645E+02 -9.443389E-11  1.118160E-08  1.121004E-08
         8   5 -1.158155E-01 -1.158155E-01  9.898645E+02 -9.113809E-09 -1.188184E-08 -1.186784E-08
         8   6 -1.158156E-01 -1.158156E-01  9.898645E+02 -7.823639E-09  4.437531E-09 -1.194113E-08
         8   7 -1.158156E-01 -1.158156E-01  9.898645E+02 -7.823616E-09 -1.199634E-08  4.444523E-09
         8   8 -1.158155E-01 -1.158155E-01  9.898645E+02 -7.472473E-09  1.571632E-08  1.573897E-08
         9   1 -1.158156E-01 -1.158156E-01  9.898645E+02 -5.239378E-09  3.238346E-08  3.236735E-08
         9   2 -1.158155E-01 -1.158155E-01  9.898645E+02 -4.096193E-09  2.823653E-08 -1.627782E-08
         9   3 -1.158155E-01 -1.158155E-01  9.898645E+02 -4.097475E-09 -1.627896E-08  2.820731E-08
         9   4 -1.158156E-01 -1.158156E-01  9.898645E+02 -4.195688E-09 -1.567564E-08 -1.567691E-08
         9   5 -1.158157E-01 -1.158157E-01  9.898645E+02  2.957051E-08  3.948610E-08  3.947546E-08
         9   6 -1.158154E-01 -1.158154E-01  9.898645E+02  2.781549E-08 -4.845514E-08  3.115028E-08
         9   7 -1.158154E-01 -1.158154E-01  9.898645E+02  2.781548E-08  3.114425E-08 -4.848635E-08
         9   8 -1.158156E-01 -1.158156E-01  9.898645E+02  2.561842E-08 -3.334459E-08 -3.334734E-08
        10   1 -1.158155E-01 -1.158155E-01  9.898645E+02  4.098301E-09 -2.820690E-08 -1.627501E-08
        10   2 -1.158156E-01 -1.158156E-01  9.898645E+02  5.234515E-09 -3.237215E-08  3.239441E-08
        10   3 -1.158156E-01 -1.158156E-01  9.898645E+02  4.194021E-09  1.567545E-08 -1.566915E-08
        10   4 -1.158155E-01 -1.158155E-01  9.898645E+02  4.096843E-09  1.627622E-08  2.823873E-08
        10   5 -1.158154E-01 -1.158154E-01  9.898645E+02 -2.781413E-08  4.848310E-08  3.115110E-08
        10   6 -1.158157E-01 -1.158157E-01  9.898645E+02 -2.956978E-08 -3.947430E-08  3.948872E-08
        10   7 -1.158156E-01 -1.158156E-01  9.898645E+02 -2.561987E-08  3.334489E-08 -3.333890E-08
        10   8 -1.158154E-01 -1.158154E-01  9.898645E+02 -2.781394E-08 -3.114856E-08 -4.844597E-08
        11   1 -1.158155E-01 -1.158155E-01  9.898645E+02  4.099169E-09 -1.628143E-08 -2.823766E-08
        11   2 -1.158156E-01 -1.158156E-01  9.898645E+02  4.194420E-09 -1.568335E-08  1.567444E-08
        11   3 -1.158156E-01 -1.158156E-01  9.898645E+02  5.236361E-09  3.236474E-08 -3.238681E-08
        11   4 -1.158155E-01 -1.158155E-01  9.898645E+02  4.097966E-09  2.819537E-08  1.627742E-08
        11   5 -1.158154E-01 -1.158154E-01  9.898645E+02 -2.781465E-08  3.114421E-08  4.845176E-08
        11   6 -1.158156E-01 -1.158156E-01  9.898645E+02 -2.562039E-08 -3.335386E-08  3.334313E-08
        11   7 -1.158157E-01 -1.158157E-01  9.898645E+02 -2.957084E-08  3.946754E-08 -3.948635E-08
        11   8 -1.158154E-01 -1.158154E-01  9.898645E+02 -2.781487E-08 -4.849230E-08 -3.114593E-08
        12   1 -1.158156E-01 -1.158156E-01  9.898645E+02 -4.195383E-09  1.566752E-08  1.568090E-08
        12   2 -1.158155E-01 -1.158155E-01  9.898645E+02 -4.094655E-09  1.627470E-08 -2.820129E-08
        12   3 -1.158155E-01 -1.158155E-01  9.898645E+02 -4.096787E-09 -2.824638E-08  1.628238E-08
        12   4 -1.158156E-01 -1.158156E-01  9.898645E+02 -5.237716E-09 -3.239142E-08 -3.236208E-08
        12   5 -1.158156E-01 -1.158156E-01  9.898645E+02  2.561846E-08  3.333798E-08  3.335180E-08
        12   6 -1.158154E-01 -1.158154E-01  9.898645E+02  2.781515E-08 -3.115278E-08  4.849374E-08
        12   7 -1.158154E-01 -1.158154E-01  9.898645E+02  2.781519E-08  4.844593E-08 -3.114480E-08
        12   8 -1.158157E-01 -1.158157E-01  9.898645E+02  2.957019E-08 -3.949261E-08 -3.947231E-08
        13   1 -1.158154E-01 -1.158154E-01  9.898645E+02 -9.186067E-09 -5.976737E-08 -5.977530E-08
        13   2 -1.158156E-01 -1.158156E-01  9.898645E+02 -3.353181E-09 -6.157288E-08  2.101498E-08
        13   3 -1.158156E-01 -1.158156E-01  9.898645E+02 -3.352576E-09  2.101203E-08 -6.160016E-08
        13   4 -1.158155E-01 -1.158155E-01  9.898645E+02  4.178447E-09  3.306525E-08  3.306431E-08
        13   5 -1.158151E-01 -1.158151E-01  9.898645E+02 -1.894456E-08 -1.812957E-07 -1.813043E-07
        13   6 -1.158159E-01 -1.158159E-01  9.898645E+02 -3.741051E-08  1.617321E-07 -7.216821E-08
        13   7 -1.158159E-01 -1.158159E-01  9.898645E+02 -3.740994E-08 -7.216994E-08  1.617061E-07
        13   8 -1.158153E-01 -1.158153E-01  9.898645E+02 -4.912928E-08  1.264513E-07  1.264504E-07
        14   1 -1.158156E-01 -1.158156E-01  9.898645E+02  3.352540E-09  6.160091E-08  2.101731E-08
        14   2 -1.158154E-01 -1.158154E-01  9.898645E+02  9.184684E-09  5.977306E-08 -5.975829E-08
        14   3 -1.158155E-01 -1.158155E-01  9.898645E+02 -4.178040E-09 -3.306448E-08  3.306963E-08
        14   4 -1.158156E-01 -1.158156E-01  9.898645E+02  3.354482E-09 -2.101807E-08 -6.156927E-08
        14   5 -1.158159E-01 -1.158159E-01  9.898645E+02  3.741104E-08 -1.617093E-07 -7.216522E-08
        14   6 -1.158151E-01 -1.158151E-01  9.898645E+02  1.894442E-08  1.813038E-07 -1.812902E-07
        14   7 -1.158153E-01 -1.158153E-01  9.898645E+02  4.912843E-08 -1.264527E-07  1.264567E-07
        14   8 -1.158159E-01 -1.158159E-01  9.898645E+02  3.741150E-08  7.216493E-08  1.617392E-07
        15   1 -1.158156E-01 -1.158156E-01  9.898645E+02  3.354008E-09  2.101070E-08  6.157265E-08
        15   2 -1.158155E-01 -1.158155E-01  9.898645E+02 -4.178990E-09  3.305966E-08 -3.306610E-08
        15   3 -1.158154E-01 -1.158154E-01  9.898645E+02  9.185301E-09 -5.978033E-08  5.976143E-08
        15   4 -1.158156E-01 -1.158156E-01  9.898645E+02  3.353476E-09 -6.160848E-08 -2.101497E-08
        15   5 -1.158159E-01 -1.158159E-01  9.898645E+02  3.741160E-08 -7.217124E-08 -1.617368E-07
        15   6 -1.158153E-01 -1.158153E-01  9.898645E+02  4.912773E-08  1.264453E-07 -1.264565E-07
        15   7 -1.158151E-01 -1.158151E-01  9.898645E+02  1.894390E-08 -1.813095E-07  1.812944E-07
        15   8 -1.158159E-01 -1.158159E-01  9.898645E+02  3.740974E-08  1.617002E-07  7.217162E-08
        16   1 -1.158155E-01 -1.158155E-01  9.898645E+02  4.179215E-09 -3.307182E-08 -3.306011E-08
        16   2 -1.158156E-01 -1.158156E-01  9.898645E+02 -3.351757E-09 -2.101882E-08  6.160365E-08
        16   3 -1.158156E-01 -1.158156E-01  9.898645E+02 -3.353995E-09  6.156523E-08 -2.101092E-08
        16   4 -1.158154E-01 -1.158154E-01  9.898645E+02 -9.186178E-09  5.975762E-08  5.978233E-08
        16   5 -1.158153E-01 -1.158153E-01  9.898645E+02 -4.912983E-08 -1.264586E-07 -1.264499E-07
        16   6 -1.158159E-01 -1.158159E-01  9.898645E+02 -3.740894E-08  7.216401E-08 -1.617042E-07
        16   7 -1.158159E-01 -1.158159E-01  9.898645E+02 -3.741098E-08 -1.617395E-07  7.217189E-08
        16   8 -1.158151E-01 -1.158151E-01  9.898645E+02 -1.894331E-08  1.812885E-07  1.813080E-07
        17   1 -1.158159E-01 -1.158159E-01  9.898645E+02 -6.085873E-08  2.117553E-07  2.117445E-07
        17   2 -1.158155E-01 -1.158155E-01  9.898645E+02 -4.461373E-08  1.487810E-07 -1.018424E-07
        17   3 -1.158155E-01 -1.158155E-01  9.898645E+02 -4.461268E-08 -1.018485E-07  1.487579E-07
        17   4 -1.158158E-01 -1.158158E-01  9.898645E+02 -3.193417E-08 -1.114695E-07 -1.114674E-07
        17   5 -1.158164E-01 -1.158164E-01  9.898645E+02  1.845238E-07  4.718951E-07  4.718914E-07
        17   6 -1.158149E-01 -1.158148E-01  9.898645E+02  1.917420E-07 -5.870019E-07  3.812063E-07
        17   7 -1.158148E-01 -1.158149E-01  9.898645E+02  1.917431E-07  3.812033E-07 -5.870242E-07
        17   8 -1.158162E-01 -1.158162E-01  9.898645E+02  1.621718E-07 -3.527006E-07 -3.527044E-07
        18   1 -1.158155E-01 -1.158155E-01  9.898645E+02  4.461280E-08 -1.487593E-07 -1.018421E-07
        18   2 -1.158159E-01 -1.158159E-01  9.898645E+02  6.085822E-08 -2.117468E-07  2.117628E-07
        18   3 -1.158158E-01 -1.158158E-01  9.898645E+02  3.193234E-08  1.114667E-07 -1.114645E-07
        18   4 -1.158155E-01 -1.158155E-01  9.898645E+02  4.461432E-08  1.018427E-07  1.487866E-07
        18   5 -1.158149E-01 -1.158148E-01  9.898645E+02 -1.917424E-07  5.870243E-07  3.812069E-07
        18   6 -1.158164E-01 -1.158164E-01  9.898645E+02 -1.845227E-07 -4.718919E-07  4.718996E-07
        18   7 -1.158162E-01 -1.158162E-01  9.898645E+02 -1.621730E-07  3.527084E-07 -3.527011E-07
        18   8 -1.158148E-01 -1.158149E-01  9.898645E+02 -1.917420E-07 -3.812086E-07 -5.869974E-07
        19   1 -1.158155E-01 -1.158155E-01  9.898645E+02  4.461415E-08 -1.018482E-07 -1.487823E-07
        19   2 -1.158158E-01 -1.158158E-01  9.898645E+02  3.193370E-08 -1.114753E-07  1.114677E-07
        19   3 -1.158159E-01 -1.158159E-01  9.898645E+02  6.085785E-08  2.117431E-07 -2.117573E-07
        19   4 -1.158155E-01 -1.158155E-01  9.898645E+02  4.461385E-08  1.487536E-07  1.018446E-07
        19   5 -1.158148E-01 -1.158149E-01  9.898645E+02 -1.917423E-07  3.812032E-07  5.870006E-07
        19   6 -1.158162E-01 -1.158162E-01  9.898645E+02 -1.621723E-07 -3.527083E-07  3.527009E-07
        19   7 -1.158164E-01 -1.158164E-01  9.898645E+02 -1.845245E-07  4.718866E-07 -4.718955E-07
        19   8 -1.158149E-01 -1.158148E-01  9.898645E+02 -1.917429E-07 -5.870263E-07 -3.812041E-07
        20   1 -1.158158E-01 -1.158158E-01  9.898645E+02 -3.193330E-08  1.114634E-07  1.114714E-07
        20   2 -1.158155E-01 -1.158155E-01  9.898645E+02 -4.461359E-08  1.018410E-07 -1.487559E-07
        20   3 -1.158155E-01 -1.158155E-01  9.898645E+02 -4.461346E-08 -1.487860E-07  1.018453E-07
        20   4 -1.158159E-01 -1.158159E-01  9.898645E+02 -6.086017E-08 -2.117623E-07 -2.117435E-07
        20   5 -1.158162E-01 -1.158162E-01  9.898645E+02  1.621709E-07  3.527014E-07  3.527054E-07
        20   6 -1.158148E-01 -1.158149E-01  9.898645E+02  1.917424E-07 -3.812104E-07  5.870241E-07
        20   7 -1.158149E-01 -1.158148E-01  9.898645E+02  1.917428E-07  5.869974E-07 -3.812065E-07
        20   8 -1.158164E-01 -1.158164E-01  9.898645E+02  1.845239E-07 -4.718978E-07 -4.718848E-07
        21   1 -1.158148E-01 -1.158148E-01  9.898645E+02 -8.987276E-08 -3.130338E-07 -3.130408E-07