
 displacements (vx,vy,vz) for set NALL and time  0.1500000E+01

         1  0.000000E+00  0.000000E+00  0.000000E+00
         2  0.000000E+00  0.000000E+00  0.000000E+00
         3  0.000000E+00  0.000000E+00  0.000000E+00
         4  0.000000E+00  0.000000E+00  0.000000E+00
         5 -5.986168E-05  1.316490E-01  1.096999E-02
         6  5.986168E-05  1.316490E-01  1.096999E-02
         7 -6.272308E-05  1.313450E-01 -1.356381E-02
         8  6.272308E-05  1.313450E-01 -1.356381E-02
         9  0.000000E+00  0.000000E+00  0.000000E+00
        10  0.000000E+00  0.000000E+00  0.000000E+00
        11  0.000000E+00  0.000000E+00  0.000000E+00
        12  0.000000E+00  0.000000E+00  0.000000E+00
        13  0.000000E+00  0.000000E+00  0.000000E+00
        14  0.000000E+00  0.000000E+00  0.000000E+00
        15  0.000000E+00  0.000000E+00  0.000000E+00
        16  0.000000E+00  0.000000E+00  0.000000E+00
        17  0.000000E+00  0.000000E+00  0.000000E+00
        18  0.000000E+00  0.000000E+00  0.000000E+00
        19  0.000000E+00  0.000000E+00  0.000000E+00
        20  0.000000E+00  0.000000E+00  0.000000E+00
        21 -2.740846E-05  1.315190E-01  1.095883E-02
        22  1.414702E-16  1.315066E-01  1.093308E-02
        23  2.740846E-05  1.315190E-01  1.095883E-02
        24 -8.096369E-07  1.314713E-01  4.796227E-03
        25 -3.682459E-07  1.313290E-01 -1.295820E-03
        26 -1.127025E-06  1.313215E-01 -7.390465E-03
        27 -2.859912E-05  1.312166E-01 -1.355163E-02
        28  1.078331E-16  1.312066E-01 -1.352605E-02
        29  2.859912E-05  1.312166E-01 -1.355163E-02
        30  1.127025E-06  1.313215E-01 -7.390465E-03
        31  3.682459E-07  1.313290E-01 -1.295820E-03
        32  8.096369E-07  1.314713E-01  4.796227E-03
        33 -4.624199E-04  8.095875E-04  1.386301E-03
        34 -3.376396E-04  2.888048E-03  2.772855E-03
        35 -3.810996E-04  6.496371E-03  4.066267E-03
        36 -3.364311E-04  1.125178E-02  5.251391E-03
        37 -3.198237E-04  1.724180E-02  6.316694E-03
        38 -2.864028E-04  2.424236E-02  7.281126E-03
        39 -2.608450E-04  3.223541E-02  8.132084E-03
        40 -2.307168E-04  4.108015E-02  8.875036E-03
        41 -2.029330E-04  5.070213E-02  9.504110E-03
        42 -1.748000E-04  6.099659E-02  1.002585E-02
        43 -1.431445E-04  7.186574E-02  1.043822E-02
        44 -1.148856E-04  8.323021E-02  1.074637E-02
        45 -8.956192E-05  9.493990E-02  1.094241E-02
        46 -7.379206E-05  1.069789E-01  1.103925E-02
        47 -5.546842E-06  1.191902E-01  1.104062E-02
        48  5.546842E-06  1.191902E-01  1.104062E-02
        49  7.379206E-05  1.069789E-01  1.103925E-02
        50  8.956192E-05  9.493990E-02  1.094241E-02
        51  1.148856E-04  8.323021E-02  1.074637E-02
        52  1.431445E-04  7.186574E-02  1.043822E-02
        53  1.748000E-04  6.099659E-02  1.002585E-02
        54  2.029330E-04  5.070213E-02  9.504110E-03
        55  2.307168E-04  4.108015E-02  8.875036E-03
        56  2.608450E-04  3.223541E-02  8.132084E-03
        57  2.864028E-04  2.424236E-02  7.281126E-03
        58  3.198237E-04  1.724180E-02  6.316694E-03
        59  3.364311E-04  1.125178E-02  5.251391E-03
        60  3.810996E-04  6.496371E-03  4.066267E-03
        61  3.376396E-04  2.888048E-03  2.772855E-03
        62  4.624199E-04  8.095875E-04  1.386301E-03
        63  4.635459E-04  8.041123E-04 -1.390945E-03
        64  3.373532E-04  2.870515E-03 -2.789853E-03
        65  3.812979E-04  6.461736E-03 -4.111593E-03
        66  3.364669E-04  1.119378E-02 -5.344006E-03
        67  3.198216E-04  1.715889E-02 -6.481898E-03
        68  2.862392E-04  2.413120E-02 -7.544888E-03
        69  2.607075E-04  3.209577E-02 -8.523568E-03
        70  2.304565E-04  4.091178E-02 -9.422607E-03
        71  2.026491E-04  5.050654E-02 -1.023600E-02
        72  1.744155E-04  6.077543E-02 -1.096865E-02
        73  1.428127E-04  7.162194E-02 -1.161575E-02
        74  1.143124E-04  8.296661E-02 -1.218059E-02
        75  8.916973E-05  9.466109E-02 -1.264964E-02
        76  7.274930E-05  1.066880E-01 -1.303521E-02
        77  5.855698E-06  1.188934E-01 -1.333112E-02
        78 -4.635459E-04  8.041123E-04 -1.390945E-03
        79 -3.373532E-04  2.870515E-03 -2.789853E-03
        80 -3.812979E-04  6.461736E-03 -4.111593E-03
        81 -3.364669E-04  1.119378E-02 -5.344006E-03
        82 -3.198216E-04  1.715889E-02 -6.481898E-03
        83 -2.862392E-04  2.413120E-02 -7.544888E-03
        84 -2.607075E-04  3.209577E-02 -8.523568E-03
        85 -2.304565E-04  4.091178E-02 -9.422607E-03
        86 -2.026491E-04  5.050654E-02 -1.023600E-02
        87 -1.744155E-04  6.077543E-02 -1.096865E-02
        88 -1.428127E-04  7.162194E-02 -1.161575E-02
        89 -1.143124E-04  8.296661E-02 -1.218059E-02
        90 -8.916973E-05  9.466109E-02 -1.264964E-02
        91 -7.274930E-05  1.066880E-01 -1.303521E-02
        92 -5.855698E-06  1.188934E-01 -1.333112E-02
        93  0.000000E+00  0.000000E+00  0.000000E+00
        94  0.000000E+00  0.000000E+00  0.000000E+00
        95  0.000000E+00  0.000000E+00  0.000000E+00
        96  0.000000E+00  0.000000E+00  0.000000E+00
        97  0.000000E+00  0.000000E+00  0.000000E+00
        98  1.684711E-16  1.314002E-01  4.804215E-03
        99  2.155727E-07  1.313216E-01 -1.296193E-03
       100  1.857178E-16  1.312988E-01 -1.296072E-03
       101 -2.155727E-07  1.313216E-01 -1.296193E-03
       102  1.634705E-16  1.312509E-01 -7.396788E-03
       103  7.556780E-19  1.008068E-03  1.345895E-03
       104  1.670040E-04  3.051516E-03  2.789758E-03
       105  5.310217E-18  3.088159E-03  2.809638E-03
       106 -1.670040E-04  3.051516E-03  2.789758E-03
       107  8.409876E-18  6.677824E-03  4.065769E-03
       108  1.681794E-04  1.138246E-02  5.259734E-03
       109  1.420735E-17  1.143336E-02  5.260750E-03
       110 -1.681794E-04  1.138246E-02  5.259734E-03
       111  2.649209E-17  1.739798E-02  6.319913E-03
       112  1.430575E-04  2.435381E-02  7.286407E-03
       113  4.444155E-17  2.439071E-02  7.286054E-03
       114 -1.430575E-04  2.435381E-02  7.286407E-03
       115  5.291046E-17  3.236479E-02  8.136057E-03
       116  1.153533E-04  4.116673E-02  8.880055E-03
       117  6.730527E-17  4.119628E-02  8.878945E-03
       118 -1.153533E-04  4.116673E-02  8.880055E-03
       119  6.578465E-17  5.080418E-02  9.508324E-03
       120  8.731255E-05  6.106194E-02  1.003128E-02
       121  7.446365E-17  6.108150E-02  1.003019E-02
       122 -8.731255E-05  6.106194E-02  1.003128E-02
       123  9.102497E-17  7.193925E-02  1.044275E-02
       124  5.769890E-05  8.326418E-02  1.075127E-02
       125  1.102556E-16  8.327711E-02  1.075022E-02
       126 -5.769890E-05  8.326418E-02  1.075127E-02
       127  1.218908E-16  9.499290E-02  1.094780E-02
       128  3.577607E-05  1.070083E-01  1.104720E-02
       129  1.440654E-16  1.069928E-01  1.104750E-02
       130 -3.577607E-05  1.070083E-01  1.104720E-02
       131  1.524012E-16  1.192052E-01  1.104279E-02
       132  9.685269E-07  5.221019E-04 -1.954101E-06
       133 -1.698507E-04  2.769070E-03  1.370474E-03
       134  8.430261E-07  2.782008E-03 -7.596924E-06
       135  1.707496E-04  2.760148E-03 -1.386197E-03
       136  8.107902E-07  6.257326E-03 -2.064760E-05
       137 -1.674916E-04  1.113497E-02  2.586848E-03
       138  5.916832E-07  1.109697E-02 -4.466829E-05
       139  1.681980E-04  1.110624E-02 -2.676712E-03
       140  4.389835E-07  1.702830E-02 -8.022487E-05
       141 -1.430799E-04  2.411363E-02  3.561300E-03
       142  3.462616E-07  2.405968E-02 -1.298516E-04
       143  1.434163E-04  2.405841E-02 -3.821950E-03
       144  2.410255E-07  3.203093E-02 -1.933674E-04
       145 -1.153480E-04  4.095361E-02  4.286518E-03
       146  1.421636E-07  4.088498E-02 -2.716243E-04
       147  1.154042E-04  4.086996E-02 -4.830814E-03
       148  4.046750E-08  5.050316E-02 -3.638432E-04
       149 -8.693876E-05  6.087494E-02  4.763626E-03
       150 -1.776401E-08  6.079695E-02 -4.694080E-04
       151  8.675779E-05  6.076497E-02 -5.703460E-03
       152 -9.036899E-08  7.167389E-02 -5.871757E-04
       153 -5.942100E-05  8.311034E-02  4.999005E-03
       154 -1.048171E-07  8.302208E-02 -7.153159E-04
       155  5.902638E-05  8.297931E-02 -6.430864E-03
       156 -2.357647E-07  9.477219E-02 -8.528942E-04
       157 -2.959120E-05  1.068770E-01  5.011463E-03
       158 -2.311211E-07  1.067821E-01 -9.964944E-04
       159  2.887907E-05  1.067320E-01 -7.005149E-03
       160 -6.288817E-08  1.190365E-01 -1.145565E-03
       161  1.092970E-18  1.002650E-03 -1.351394E-03
       162  1.671588E-04  3.033336E-03 -2.808773E-03
       163  4.399012E-18  3.070223E-03 -2.829380E-03
       164 -1.671588E-04  3.033336E-03 -2.808773E-03
       165  1.142585E-17  6.642572E-03 -4.114221E-03
       166  1.683147E-04  1.132411E-02 -5.355387E-03
       167  2.011111E-17  1.137525E-02 -5.357499E-03
       168 -1.683147E-04  1.132411E-02 -5.355387E-03
       169  2.985013E-17  1.731465E-02 -6.489245E-03
       170  1.430840E-04  2.424225E-02 -7.553541E-03
       171  3.675504E-17  2.427930E-02 -7.554312E-03
       172 -1.430840E-04  2.424225E-02 -7.553541E-03
       173  5.045585E-17  3.222477E-02 -8.531956E-03
       174  1.152863E-04  4.099800E-02 -9.430905E-03
       175  6.731050E-17  4.102764E-02 -9.430870E-03
       176 -1.152863E-04  4.099800E-02 -9.430905E-03
       177  6.232423E-17  5.060823E-02 -1.024433E-02
       178  8.715506E-05  6.084043E-02 -1.097681E-02
       179  7.745475E-17  6.086008E-02 -1.097656E-02
       180 -8.715506E-05  6.084043E-02 -1.097681E-02
       181  9.558934E-17  7.169510E-02 -1.162363E-02
       182  5.743252E-05  8.300037E-02 -1.218728E-02
       183  1.029984E-16  8.301348E-02 -1.218669E-02
       184 -5.743252E-05  8.300037E-02 -1.218728E-02
       185  1.094108E-16  9.471362E-02 -1.265752E-02
       186  3.524520E-05  1.067172E-01 -1.304377E-02
       187  1.069101E-16  1.067020E-01 -1.304374E-02
       188 -3.524520E-05  1.067172E-01 -1.304377E-02
       189  1.082508E-16  1.189079E-01 -1.333493E-02
       190 -9.685269E-07  5.221019E-04 -1.954101E-06
       191 -1.707496E-04  2.760148E-03 -1.386197E-03
       192 -8.430261E-07  2.782008E-03 -7.596924E-06
       193  1.698507E-04  2.769070E-03  1.370474E-03
       194 -8.107902E-07  6.257326E-03 -2.064760E-05
       195 -1.681980E-04  1.110624E-02 -2.676712E-03
       196 -5.916832E-07  1.109697E-02 -4.466829E-05
       197  1.674916E-04  1.113497E-02  2.586848E-03
       198 -4.389835E-07  1.702830E-02 -8.022487E-05
       199 -1.434163E-04  2.405841E-02 -3.821950E-03
       200 -3.462616E-07  2.405968E-02 -1.298516E-04
       201  1.430799E-04  2.411363E-02  3.561300E-03
       202 -2.410255E-07  3.203093E-02 -1.933674E-04
       203 -1.154042E-04  4.086996E-02 -4.830814E-03
       204 -1.421636E-07  4.088498E-02 -2.716243E-04
       205  1.153480E-04  4.095361E-02  4.286518E-03
       206 -4.046750E-08  5.050316E-02 -3.638432E-04
       207 -8.675779E-05  6.076497E-02 -5.703460E-03
       208  1.776401E-08  6.079695E-02 -4.694080E-04
       209  8.693876E-05  6.087494E-02  4.763626E-03
       210  9.036899E-08  7.167389E-02 -5.871757E-04
       211 -5.902638E-05  8.297931E-02 -6.430864E-03
       212  1.048171E-07  8.302208E-02 -7.153159E-04
       213  5.942100E-05  8.311034E-02  4.999005E-03
       214  2.357647E-07  9.477219E-02 -8.528942E-04
       215 -2.887907E-05  1.067320E-01 -7.005149E-03
       216  2.311211E-07  1.067821E-01 -9.964944E-04
       217  2.959120E-05  1.068770E-01  5.011463E-03
       218  6.288817E-08  1.190365E-01 -1.145565E-03
       219  9.428535E-19  7.194931E-04 -2.499429E-06
       220  4.838461E-18  2.959391E-03  1.385465E-03
       221 -4.604211E-07  2.938963E-03 -8.472247E-06
       222  4.973725E-18  2.966441E-03 -8.751079E-06
       223  4.604211E-07  2.938963E-03 -8.472247E-06
       224  4.888401E-18  2.950166E-03 -1.403736E-03
       225  9.641477E-18  6.445080E-03 -2.226621E-05
       226  1.922990E-17  1.131049E-02  2.594496E-03
       227 -3.184122E-07  1.122054E-02 -4.611195E-05
       228  1.857658E-17  1.126536E-02 -4.654596E-05
       229  3.184122E-07  1.122054E-02 -4.611195E-05
       230  1.874760E-17  1.128155E-02 -2.688266E-03
       231  2.937707E-17  1.718880E-02 -8.235784E-05
       232  4.194984E-17  2.425885E-02  3.565602E-03
       233 -1.902607E-07  2.416798E-02 -1.314813E-04
       234  4.278694E-17  2.420194E-02 -1.319968E-04
       235  1.902607E-07  2.416798E-02 -1.314813E-04
       236  3.893411E-17  2.420335E-02 -3.830652E-03
       237  5.399723E-17  3.216162E-02 -1.955952E-04
       238  6.369348E-17  4.106954E-02  4.290572E-03
       239 -8.120767E-08  4.097133E-02 -2.732627E-04
       240  6.537583E-17  4.100035E-02 -2.737896E-04
       241  8.120767E-08  4.097133E-02 -2.732627E-04
       242  6.074428E-17  4.098559E-02 -4.839196E-03
       243  7.084163E-17  5.060411E-02 -3.658667E-04
       244  8.318768E-17  6.096157E-02  4.767811E-03
       245 -2.819456E-11  6.086293E-02 -4.708220E-04
       246  6.890519E-17  6.088565E-02 -4.713060E-04
       247  2.819472E-11  6.086293E-02 -4.708220E-04
       248  8.731689E-17  6.085133E-02 -5.711354E-03
       249  8.796235E-17  7.174425E-02 -5.887710E-04
       250  1.058590E-16  8.316573E-02  5.004203E-03
       251  6.015863E-08  8.306792E-02 -7.164392E-04
       252  1.143317E-16  8.308387E-02 -7.168313E-04
       253 -6.015863E-08  8.306792E-02 -7.164392E-04
       254  1.139416E-16  8.303446E-02 -6.438596E-03
       255  1.257275E-16  9.481368E-02 -8.537831E-04
       256  1.464099E-16  1.068985E-01  5.014336E-03
       257  8.907111E-08  1.068055E-01 -9.969399E-04
       258  1.143307E-16  1.068185E-01 -9.971772E-04
       259 -8.907111E-08  1.068055E-01 -9.969399E-04
       260  1.198260E-16  1.067537E-01 -7.009233E-03
       261  1.392512E-16  1.190378E-01 -1.146043E-03

 stresses (elem, integ.pnt.,sxx,syy,szz,sxy,sxz,syz) for set EALL and time  0.1500000E+01

         1   1  9.154393E+01  9.187864E+01  5.109467E+02 -1.142094E+01  4.715340E+01  1.674725E+01
         1   2  8.669794E+01  8.676283E+01  4.981280E+02  3.356150E+00  9.707410E+00  3.953134E+01
         1   3  1.988766E+00 -2.681996E+01  1.124882E+02 -1.149921E+01  1.245855E+01 -1.167436E+01
         1   4  8.558886E-01 -2.762742E+01  1.090214E+02  3.339895E+00  2.522545E+00  1.125676E+01
         1   5 -2.550270E+01 -2.207493E+01  4.527551E+02 -4.169430E+00 -1.888451E+01  2.017457E+00
         1   6 -1.488375E+01 -1.526968E+01  4.743813E+02  1.329556E+00 -5.807483E+00  7.927939E-01
         1   7 -1.237609E+01 -1.759966E+01  1.139458E+02 -5.303546E+00 -5.136881E+00  2.882902E+01
         1   8 -9.896394E+00 -1.642656E+01  1.191126E+02  2.090919E-01 -1.701198E+00  2.770484E+01
         2   1  8.669794E+01  8.676283E+01  4.981280E+02 -3.356150E+00 -9.707410E+00  3.953134E+01
         2   2  9.154393E+01  9.187864E+01  5.109467E+02  1.142094E+01 -4.715340E+01  1.674725E+01
         2   3  8.558886E-01 -2.762742E+01  1.090214E+02 -3.339895E+00 -2.522545E+00  1.125676E+01
         2   4  1.988766E+00 -2.681996E+01  1.124882E+02  1.149921E+01 -1.245855E+01 -1.167436E+01
         2   5 -1.488375E+01 -1.526968E+01  4.743813E+02 -1.329556E+00  5.807483E+00  7.927939E-01
         2   6 -2.550270E+01 -2.207493E+01  4.527551E+02  4.169430E+00  1.888451E+01  2.017457E+00
         2   7 -9.896394E+00 -1.642656E+01  1.191126E+02 -2.090919E-01  1.701198E+00  2.770484E+01
         2   8 -1.237609E+01 -1.759966E+01  1.139458E+02  5.303546E+00  5.136881E+00  2.882902E+01
         3   1 -2.335472E+00  2.581612E+01 -1.139232E+02 -1.154023E+01 -1.271110E+01 -1.199303E+01
         3   2 -1.284192E+00  2.662407E+01 -1.107615E+02  3.342470E+00 -2.584720E+00  1.090414E+01
         3   3 -9.161513E+01 -9.249534E+01 -5.082842E+02 -1.158601E+01 -4.677207E+01  1.534606E+01
         3   4 -8.685875E+01 -8.724222E+01 -4.958697E+02  3.357743E+00 -9.606767E+00  3.788853E+01
         3   5  1.252917E+01  1.683050E+01 -1.151143E+02 -5.193781E+00  5.232791E+00  2.762382E+01
         3   6  9.820911E+00  1.519133E+01 -1.208356E+02  2.531984E-01  1.734703E+00  2.646382E+01
         3   7  2.572093E+01  2.148120E+01 -4.500098E+02 -3.960575E+00  1.887126E+01 -2.045265E+00
         3   8  1.513211E+01  1.443924E+01 -4.718204E+02  1.498587E+00  5.806791E+00 -3.357950E+00
         4   1 -1.284192E+00  2.662407E+01 -1.107615E+02 -3.342470E+00  2.584720E+00  1.090414E+01
         4   2 -2.335472E+00  2.581612E+01 -1.139232E+02  1.154023E+01  1.271110E+01 -1.199303E+01
         4   3 -8.685875E+01 -8.724222E+01 -4.958697E+02 -3.357743E+00  9.606767E+00  3.788853E+01
         4   4 -9.161513E+01 -9.249534E+01 -5.082842E+02  1.158601E+01  4.677207E+01  1.534606E+01
         4   5  9.820911E+00  1.519133E+01 -1.208356E+02 -2.531984E-01 -1.734703E+00  2.646382E+01
         4   6  1.252917E+01  1.683050E+01 -1.151143E+02  5.193781E+00 -5.232791E+00  2.762382E+01
         4   7  1.513211E+01  1.443924E+01 -4.718204E+02 -1.498587E+00 -5.806791E+00 -3.357950E+00
         4   8  2.572093E+01  2.148120E+01 -4.500098E+02  3.960575E+00 -1.887126E+01 -2.045265E+00
         5   1  7.752143E+00  6.110679E-02  4.364119E+02  6.010378E+00  6.999277E+00  1.885275E+01
         5   2  5.804835E+00 -4.473859E+00  4.271251E+02 -3.686723E+00  3.396673E+00  1.566479E+01
         5   3  1.327138E+01  2.669135E+01  1.271633E+02  5.446708E+00  1.674611E+00  1.408609E+01
         5   4  1.340694E+01  2.668976E+01  1.255760E+02 -4.196375E+00  7.733481E-01  1.288238E+01
         5   5 -5.339574E+00 -7.903649E+00  3.960829E+02 -1.056023E+00 -3.884905E+00  7.130342E+00
         5   6 -2.733999E+00 -5.766907E+00  4.006361E+02 -2.600880E-01 -1.803207E+00  7.338561E+00
         5   7 -4.001551E+00 -7.792254E+00  1.022680E+02 -1.019463E+00 -8.911863E-01  2.586984E+01
         5   8 -3.097033E+00 -7.061836E+00  1.039658E+02 -2.092759E-01 -2.943557E-01  2.377750E+01
         6   1  5.804835E+00 -4.473859E+00  4.271251E+02  3.686723E+00 -3.396673E+00  1.566479E+01
         6   2  7.752143E+00  6.110679E-02  4.364119E+02 -6.010378E+00 -6.999277E+00  1.885275E+01
         6   3  1.340694E+01  2.668976E+01  1.255760E+02  4.196375E+00 -7.733481E-01  1.288238E+01
         6   4  1.327138E+01  2.669135E+01  1.271633E+02 -5.446708E+00 -1.674611E+00  1.408609E+01
         6   5 -2.733999E+00 -5.766907E+00  4.006361E+02  2.600880E-01  1.803207E+00  7.338561E+00
         6   6 -5.339574E+00 -7.903649E+00  3.960829E+02  1.056023E+00  3.884905E+00  7.130342E+00
         6   7 -3.097033E+00 -7.061836E+00  1.039658E+02  2.092759E-01  2.943557E-01  2.377750E+01
         6   8 -4.001551E+00 -7.792254E+00  1.022680E+02  1.019463E+00  8.911863E-01  2.586984E+01
         7   1 -1.348885E+01 -2.776794E+01 -1.285160E+02  5.521656E+00 -1.754059E+00  1.251717E+01
         7   2 -1.368054E+01 -2.816043E+01 -1.272240E+02 -4.178844E+00 -7.958765E-01  1.131142E+01
         7   3 -7.823182E+00 -5.539167E-02 -4.341154E+02  6.005159E+00 -7.065014E+00  1.293653E+01
         7   4 -5.546512E+00  4.380236E+00 -4.249362E+02 -3.641015E+00 -3.401501E+00  9.784206E+00
         7   5  4.043499E+00  7.858553E+00 -1.037330E+02 -9.390021E-01  9.159954E-01  2.368480E+01
         7   6  2.996269E+00  6.676782E+00 -1.057149E+02 -1.857768E-01  3.141591E-01  2.159848E+01
         7   7  5.443965E+00  7.674551E+00 -3.938863E+02 -9.446772E-01  3.867913E+00 -7.910770E-01
         7   8  2.905032E+00  5.390766E+00 -3.986502E+02 -1.682507E-01  1.802414E+00 -5.749702E-01
         8   1 -1.368054E+01 -2.816043E+01 -1.272240E+02  4.178844E+00  7.958765E-01  1.131142E+01
         8   2 -1.348885E+01 -2.776794E+01 -1.285160E+02 -5.521656E+00  1.754059E+00  1.251717E+01
         8   3 -5.546512E+00  4.380236E+00 -4.249362E+02  3.641015E+00  3.401501E+00  9.784206E+00
         8   4 -7.823182E+00 -5.539167E-02 -4.341154E+02 -6.005159E+00  7.065014E+00  1.293653E+01
         8   5  2.996269E+00  6.676782E+00 -1.057149E+02  1.857768E-01 -3.141591E-01  2.159848E+01
         8   6  4.043499E+00  7.858553E+00 -1.037330E+02  9.390021E-01 -9.159954E-01  2.368480E+01
         8   7  2.905032E+00  5.390766E+00 -3.986502E+02  1.682507E-01 -1.802414E+00 -5.749702E-01
         8   8  5.443965E+00  7.674551E+00 -3.938863E+02  9.446772E-01 -3.867913E+00 -7.910770E-01
         9   1  4.201328E+00  8.973098E+00  3.715676E+02 -5.470421E-01  1.027567E+00  1.533061E+01
         9   2  3.244899E+00  7.623092E+00  3.694771E+02  1.211985E+00 -1.948764E-01  1.325468E+01
         9   3  9.080977E-01  1.656786E+00  9.863169E+01 -6.546838E-01  5.700635E-01  1.941867E+01
         9   4  2.013695E-01  2.620216E-01  9.756622E+01  1.139041E+00  2.451377E-01  1.682399E+01
         9   5 -1.370339E+00 -2.895114E+00  3.332714E+02 -3.331993E-01 -1.423002E+00  1.135448E+01
         9   6 -7.117075E-01 -2.068812E+00  3.340764E+02 -2.260950E-01 -9.544143E-01  1.064593E+01
         9   7 -1.369678E+00 -2.939730E+00  8.754675E+01 -1.480409E-01 -1.237228E-01  2.344481E+01
         9   8 -1.068740E+00 -2.444108E+00  8.786699E+01 -8.458697E-03 -4.782942E-03  2.071569E+01
        10   1  3.244899E+00  7.623092E+00  3.694771E+02 -1.211985E+00  1.948764E-01  1.325468E+01
        10   2  4.201328E+00  8.973098E+00  3.715676E+02  5.470421E-01 -1.027567E+00  1.533061E+01
        10   3  2.013695E-01  2.620216E-01  9.756622E+01 -1.139041E+00 -2.451377E-01  1.682399E+01
        10   4  9.080977E-01  1.656786E+00  9.863169E+01  6.546838E-01 -5.700635E-01  1.941867E+01
        10   5 -7.117075E-01 -2.068812E+00  3.340764E+02  2.260950E-01  9.544143E-01  1.064593E+01
        10   6 -1.370339E+00 -2.895114E+00  3.332714E+02  3.331993E-01  1.423002E+00  1.135448E+01
        10   7 -1.068740E+00 -2.444108E+00  8.786699E+01  8.458697E-03  4.782942E-03  2.071569E+01
        10   8 -1.369678E+00 -2.939730E+00  8.754675E+01  1.480409E-01  1.237228E-01  2.344481E+01
        11   1 -9.924698E-01 -1.723157E+00 -9.994068E+01 -6.032409E-01 -6.005955E-01  1.715537E+01
        11   2 -3.747966E-01 -6.797010E-01 -9.902664E+01  1.157119E+00 -2.424805E-01  1.455823E+01
        11   3 -4.175893E+00 -8.910524E+00 -3.699626E+02 -5.045447E-01 -1.064193E+00  6.786188E+00
        11   4 -3.140194E+00 -7.715206E+00 -3.679465E+02  1.290633E+00  1.812404E-01  4.704524E+00
        11   5  1.349395E+00  3.580165E+00 -8.899438E+01 -9.868582E-02  1.133427E-01  2.081597E+01
        11   6  9.664238E-01  2.695948E+00 -8.939374E+01  5.020453E-03  7.249320E-03  1.810569E+01
        11   7  1.421002E+00  3.066423E+00 -3.317983E+02 -2.621074E-01  1.408143E+00  1.805844E+00
        11   8  8.303317E-01  2.113598E+00 -3.327057E+02 -1.572526E-01  9.557160E-01  1.126299E+00
        12   1 -3.747966E-01 -6.797010E-01 -9.902664E+01 -1.157119E+00  2.424805E-01  1.455823E+01
        12   2 -9.924698E-01 -1.723157E+00 -9.994068E+01  6.032409E-01  6.005955E-01  1.715537E+01
        12   3 -3.140194E+00 -7.715206E+00 -3.679465E+02 -1.290633E+00 -1.812404E-01  4.704524E+00
        12   4 -4.175893E+00 -8.910524E+00 -3.699626E+02  5.045447E-01  1.064193E+00  6.786188E+00
        12   5  9.664238E-01  2.695948E+00 -8.939374E+01 -5.020453E-03 -7.249320E-03  1.810569E+01
        12   6  1.349395E+00  3.580165E+00 -8.899438E+01  9.868582E-02 -1.133427E-01  2.081597E+01
        12   7  8.303317E-01  2.113598E+00 -3.327057E+02  1.572526E-01 -9.557160E-01  1.126299E+00
        12   8  1.421002E+00  3.066423E+00 -3.317983E+02  2.621074E-01 -1.408143E+00  1.805844E+00
        13   1  5.328022E-01  1.299366E+00  3.062407E+02  4.704144E-01 -3.684506E-01  1.433236E+01
        13   2  3.368315E-01  5.625471E-01  3.057791E+02 -1.509833E-01 -5.193963E-01  1.270785E+01
        13   3  1.348972E+00  3.580835E+00  8.244397E+01  2.903401E-01  1.350955E-01  2.080444E+01
        13   4  1.137677E+00  2.950682E+00  8.219285E+01 -3.102762E-01  9.770653E-02  1.834483E+01
        13   5 -4.897802E-01 -9.877044E-01  2.693232E+02 -1.945896E-01 -9.185634E-01  1.251496E+01
        13   6 -2.437579E-01 -5.406298E-01  2.695530E+02 -7.100983E-02 -7.628272E-01  1.137637E+01
        13   7 -6.391499E-01 -8.335816E-01  7.079478E+01 -5.003282E-02 -2.632553E-03  2.248995E+01
        13   8 -4.709234E-01 -5.583947E-01  7.101977E+01  2.735176E-02  4.296935E-02  1.985891E+01
        14   1  3.368315E-01  5.625471E-01  3.057791E+02  1.509833E-01  5.193963E-01  1.270785E+01
        14   2  5.328022E-01  1.299366E+00  3.062407E+02 -4.704144E-01  3.684506E-01  1.433236E+01
        14   3  1.137677E+00  2.950682E+00  8.219285E+01  3.102762E-01 -9.770653E-02  1.834483E+01
        14   4  1.348972E+00  3.580835E+00  8.244397E+01 -2.903401E-01 -1.350955E-01  2.080444E+01
        14   5 -2.437579E-01 -5.406298E-01  2.695530E+02  7.100983E-02  7.628272E-01  1.137637E+01
        14   6 -4.897802E-01 -9.877044E-01  2.693232E+02  1.945896E-01  9.185634E-01  1.251496E+01
        14   7 -4.709234E-01 -5.583947E-01  7.101977E+01 -2.735176E-02 -4.296935E-02  1.985891E+01
        14   8 -6.391499E-01 -8.335816E-01  7.079478E+01  5.003282E-02  2.632553E-03  2.248995E+01
        15   1 -1.395288E+00 -2.994536E+00 -8.374480E+01  3.309614E-01 -1.460978E-01  1.823641E+01
        15   2 -1.248470E+00 -2.704017E+00 -8.354486E+01 -2.990470E-01 -9.418326E-02  1.576785E+01
        15   3 -5.243778E-01 -9.893839E-01 -3.051801E+02  5.213960E-01  3.303901E-01  4.723597E+00
        15   4 -2.501401E-01 -3.995003E-01 -3.047368E+02 -8.749908E-02  5.116927E-01  3.093470E+00
        15   5  6.353623E-01  1.921908E+00 -7.219200E+01 -1.832509E-02 -5.872274E-03  1.986755E+01
        15   6  4.096137E-01  1.304492E+00 -7.239294E+01  3.524676E-02 -3.953733E-02  1.725250E+01
        15   7  5.262363E-01  1.378766E+00 -2.684358E+02 -1.387523E-01  9.057833E-01  2.870794E+00
        15   8  3.293900E-01  8.026955E-01 -2.686788E+02 -1.359017E-02  7.649639E-01  1.757920E+00
        16   1 -1.248470E+00 -2.704017E+00 -8.354486E+01  2.990470E-01  9.418326E-02  1.576785E+01
        16   2 -1.395288E+00 -2.994536E+00 -8.374480E+01 -3.309614E-01  1.460978E-01  1.823641E+01
        16   3 -2.501401E-01 -3.995003E-01 -3.047368E+02  8.749908E-02 -5.116927E-01  3.093470E+00
        16   4 -5.243778E-01 -9.893839E-01 -3.051801E+02 -5.213960E-01 -3.303901E-01  4.723597E+00
        16   5  4.096137E-01  1.304492E+00 -7.239294E+01 -3.524676E-02  3.953733E-02  1.725250E+01
        16   6  6.353623E-01  1.921908E+00 -7.219200E+01  1.832509E-02  5.872274E-03  1.986755E+01
        16   7  3.293900E-01  8.026955E-01 -2.686788E+02  1.359017E-02 -7.649639E-01  1.757920E+00
        16   8  5.262363E-01  1.378766E+00 -2.684358E+02  1.387523E-01 -9.057833E-01  2.870794E+00
        17   1  4.854697E-01  1.571714E+00  2.422244E+02  2.310225E-02 -6.313722E-01  1.307320E+01
        17   2  3.222755E-01  1.086690E+00  2.420756E+02  1.362196E-01 -7.040523E-01  1.185499E+01
        17   3  3.777364E-01  1.494192E+00  6.444870E+01 -8.235232E-02  6.135922E-02  2.167522E+01
        17   4  1.506981E-01  8.630628E-01  6.427810E+01  4.321213E-02  5.819421E-02  1.907004E+01
        17   5 -4.448413E-01 -4.078274E-01  2.052181E+02 -6.156494E-02 -6.517368E-01  1.270879E+01
        17   6 -2.378004E-01 -1.917157E-01  2.053507E+02 -3.461833E-01 -7.396298E-01  1.124226E+01
        17   7 -4.344806E-01 -4.102091E-01  5.394468E+01  8.603110E-02  4.185689E-02  2.167066E+01
        17   8 -2.026828E-01 -1.820990E-02  5.420846E+01  2.939891E-02  3.287741E-02  1.919311E+01
        18   1  3.222755E-01  1.086690E+00  2.420756E+02 -1.362196E-01  7.040523E-01  1.185499E+01
        18   2  4.854697E-01  1.571714E+00  2.422244E+02 -2.310225E-02  6.313722E-01  1.307320E+01
        18   3  1.506981E-01  8.630628E-01  6.427810E+01 -4.321213E-02 -5.819421E-02  1.907004E+01
        18   4  3.777364E-01  1.494192E+00  6.444870E+01  8.235232E-02 -6.135922E-02  2.167522E+01
        18   5 -2.378004E-01 -1.917157E-01  2.053507E+02  3.461833E-01  7.396298E-01  1.124226E+01
        18   6 -4.448413E-01 -4.078274E-01  2.052181E+02  6.156494E-02  6.517368E-01  1.270879E+01
        18   7 -2.026828E-01 -1.820990E-02  5.420846E+01 -2.939891E-02 -3.287741E-02  1.919311E+01
        18   8 -4.344806E-01 -4.102091E-01  5.394468E+01 -8.603110E-02 -4.185689E-02  2.167066E+01
        19   1 -4.113090E-01 -3.331326E-01 -6.580523E+01 -5.785046E-02 -6.903464E-02  1.921011E+01
        19   2 -2.228415E-01 -1.557224E-02 -6.555612E+01  4.960409E-02 -5.158992E-02  1.659600E+01
        19   3 -4.761888E-01 -1.106064E+00 -2.415806E+02  6.998364E-02  6.025352E-01  3.864860E+00
        19   4 -2.746636E-01 -7.509429E-01 -2.414158E+02  1.900977E-01  6.968298E-01  2.635465E+00
        19   5  4.235328E-01  1.865350E+00 -5.529422E+01  1.054155E-01 -5.191737E-02  1.935358E+01
        19   6  1.690236E-01  1.189147E+00 -5.544753E+01  3.542007E-02 -3.695922E-02  1.689044E+01
        19   7  4.592076E-01  1.019865E+00 -2.048064E+02 -1.443722E-02  6.520280E-01  4.167432E+00
        19   8  2.827135E-01  6.557334E-01 -2.048654E+02 -2.955282E-01  7.438793E-01  2.731408E+00
        20   1 -2.228415E-01 -1.557224E-02 -6.555612E+01 -4.960409E-02  5.158992E-02  1.659600E+01
        20   2 -4.113090E-01 -3.331326E-01 -6.580523E+01  5.785046E-02  6.903464E-02  1.921011E+01
        20   3 -2.746636E-01 -7.509429E-01 -2.414158E+02 -1.900977E-01 -6.968298E-01  2.635465E+00
        20   4 -4.761888E-01 -1.106064E+00 -2.415806E+02 -6.998364E-02 -6.025352E-01  3.864860E+00
        20   5  1.690236E-01  1.189147E+00 -5.544753E+01 -3.542007E-02  3.695922E-02  1.689044E+01
        20   6  4.235328E-01  1.865350E+00 -5.529422E+01 -1.054155E-01  5.191737E-02  1.935358E+01
        20   7  2.827135E-01  6.557334E-01 -2.048654E+02  2.955282E-01 -7.438793E-01  2.731408E+00
        20   8  4.592076E-01  1.019865E+00 -2.048064E+02  1.443722E-02 -6.520280E-01  4.167432E+00
        21   1  4.737065E-01  1.449537E+00  1.781933E+02  1.761529E-01 -8.836371E-01  1.179265E+01