
 displacements (vx,vy,vz) for set NALL and time  0.1000000E+01

         1  0.000000E+00  0.000000E+00  0.000000E+00
         2 -4.700322E-02  0.000000E+00  0.000000E+00
         3 -4.700322E-02 -4.700322E-02  0.000000E+00
         4 -3.366956E-17 -4.700322E-02  0.000000E+00
         5  6.901475E-09  6.901988E-09  8.549490E-01
         6 -4.700323E-02  6.901970E-09  8.549490E-01
         7 -4.700323E-02 -4.700323E-02  8.549490E-01
         8  6.901493E-09 -4.700323E-02  8.549490E-01
         9 -1.175080E-02  9.641915E-13  0.000000E+00
        10 -2.350161E-02  1.789850E-12  0.000000E+00
        11 -3.525241E-02  9.629235E-13  0.000000E+00
        12 -4.700322E-02 -1.175080E-02  0.000000E+00
        13 -4.700322E-02 -2.350161E-02  0.000000E+00
        14 -4.700322E-02 -3.525241E-02  0.000000E+00
        15 -3.525241E-02 -4.700322E-02  0.000000E+00
        16 -2.350161E-02 -4.700322E-02  0.000000E+00
        17 -1.175080E-02 -4.700322E-02  0.000000E+00
        18  9.626685E-13 -3.525241E-02  0.000000E+00
        19  1.788273E-12 -2.350161E-02  0.000000E+00
        20  9.618182E-13 -1.175080E-02  0.000000E+00
        21 -1.175080E-02  8.235279E-09  8.549490E-01
        22 -2.350161E-02  9.246579E-09  8.549490E-01
        23 -3.525242E-02  8.235270E-09  8.549490E-01
        24 -4.700323E-02 -1.175080E-02  8.549490E-01
        25 -4.700323E-02 -2.350161E-02  8.549490E-01
        26 -4.700323E-02 -3.525242E-02  8.549490E-01
        27 -3.525242E-02 -4.700323E-02  8.549490E-01
        28 -2.350161E-02 -4.700323E-02  8.549490E-01
        29 -1.175080E-02 -4.700323E-02  8.549490E-01
        30  8.234784E-09 -3.525242E-02  8.549490E-01
        31  9.246084E-09 -2.350161E-02  8.549490E-01
        32  8.234774E-09 -1.175080E-02  8.549490E-01
        33 -4.700322E-02  1.339315E-12  5.343431E-02
        34 -4.700322E-02 -3.838393E-14  1.068686E-01
        35 -4.700322E-02  8.649821E-13  1.603029E-01
        36 -4.700322E-02 -2.376535E-12  2.137372E-01
        37 -4.700322E-02  5.569612E-12  2.671716E-01
        38 -4.700322E-02 -3.463920E-12  3.206059E-01
        39 -4.700322E-02 -4.122646E-12  3.740402E-01
        40 -4.700322E-02 -2.025606E-11  4.274745E-01
        41 -4.700322E-02  4.970130E-11  4.809088E-01
        42 -4.700322E-02 -2.067646E-12  5.343431E-01
        43 -4.700322E-02 -1.064331E-10  5.877774E-01
        44 -4.700322E-02 -6.847011E-11  6.412117E-01
        45 -4.700322E-02  4.997069E-10  6.946460E-01
        46 -4.700322E-02  6.633560E-10  7.480803E-01
        47 -4.700322E-02 -2.214146E-09  8.015147E-01
        48 -2.214591E-09 -2.214127E-09  8.015147E-01
        49  6.629607E-10  6.633757E-10  7.480803E-01
        50  4.993603E-10  4.997273E-10  6.946460E-01
        51 -6.876944E-11 -6.844993E-11  6.412117E-01
        52 -1.066874E-10 -1.064142E-10  5.877774E-01
        53 -2.280084E-12 -2.051156E-12  5.343431E-01
        54  4.952831E-11  4.971564E-11  4.809088E-01
        55 -2.039340E-11 -2.024299E-11  4.274745E-01
        56 -4.227897E-12 -4.109944E-12  3.740402E-01
        57 -3.541054E-12 -3.451202E-12  3.206059E-01
        58  5.516343E-12  5.582571E-12  2.671716E-01
        59 -2.410289E-12 -2.364856E-12  2.137372E-01
        60  8.466896E-13  8.752503E-13  1.603029E-01
        61 -4.614693E-14 -3.131852E-14  1.068686E-01
        62  1.338520E-12  1.344172E-12  5.343431E-02
        63 -4.700322E-02 -4.700322E-02  5.343431E-02
        64 -4.700322E-02 -4.700322E-02  1.068686E-01
        65 -4.700322E-02 -4.700322E-02  1.603029E-01
        66 -4.700322E-02 -4.700322E-02  2.137372E-01
        67 -4.700322E-02 -4.700322E-02  2.671716E-01
        68 -4.700322E-02 -4.700322E-02  3.206059E-01
        69 -4.700322E-02 -4.700322E-02  3.740402E-01
        70 -4.700322E-02 -4.700322E-02  4.274745E-01
        71 -4.700322E-02 -4.700322E-02  4.809088E-01
        72 -4.700322E-02 -4.700322E-02  5.343431E-01
        73 -4.700322E-02 -4.700322E-02  5.877774E-01
        74 -4.700322E-02 -4.700322E-02  6.412117E-01
        75 -4.700322E-02 -4.700322E-02  6.946460E-01
        76 -4.700322E-02 -4.700322E-02  7.480803E-01
        77 -4.700322E-02 -4.700322E-02  8.015147E-01
        78  1.340029E-12 -4.700322E-02  5.343431E-02
        79 -4.192253E-14 -4.700322E-02  1.068686E-01
        80  8.534005E-13 -4.700322E-02  1.603029E-01
        81 -2.401612E-12 -4.700322E-02  2.137372E-01
        82  5.525964E-12 -4.700322E-02  2.671716E-01
        83 -3.531486E-12 -4.700322E-02  3.206059E-01
        84 -4.218220E-12 -4.700322E-02  3.740402E-01
        85 -2.038337E-11 -4.700322E-02  4.274745E-01
        86  4.954008E-11 -4.700322E-02  4.809088E-01
        87 -2.265508E-12 -4.700322E-02  5.343431E-01
        88 -1.066705E-10 -4.700322E-02  5.877774E-01
        89 -6.875059E-11 -4.700322E-02  6.412117E-01
        90  4.993796E-10 -4.700322E-02  6.946460E-01
        91  6.629794E-10 -4.700322E-02  7.480803E-01
        92 -2.214573E-09 -4.700322E-02  8.015147E-01
        93 -2.350161E-02 -1.175080E-02  0.000000E+00
        94 -1.175080E-02 -2.350161E-02  0.000000E+00
        95 -2.350161E-02 -2.350161E-02  0.000000E+00
        96 -3.525241E-02 -2.350161E-02  0.000000E+00
        97 -2.350161E-02 -3.525241E-02  0.000000E+00
        98 -2.350161E-02 -1.175080E-02  8.549490E-01
        99 -1.175080E-02 -2.350161E-02  8.549490E-01
       100 -2.350161E-02 -2.350161E-02  8.549489E-01
       101 -3.525241E-02 -2.350161E-02  8.549490E-01
       102 -2.350161E-02 -3.525241E-02  8.549490E-01
       103 -2.350161E-02  4.739000E-13  5.343431E-02
       104 -1.175080E-02  9.541401E-13  1.068686E-01
       105 -2.350161E-02  2.227639E-12  1.068686E-01
       106 -3.525241E-02  9.507843E-13  1.068686E-01
       107 -2.350161E-02 -3.559428E-13  1.603029E-01
       108 -1.175080E-02  2.391923E-12  2.137372E-01
       109 -2.350161E-02  6.229656E-12  2.137372E-01
       110 -3.525241E-02  2.386193E-12  2.137372E-01
       111 -2.350161E-02 -2.256639E-12  2.671716E-01
       112 -1.175080E-02  5.924332E-12  3.206059E-01
       113 -2.350161E-02  1.840738E-11  3.206059E-01
       114 -3.525241E-02  5.917967E-12  3.206059E-01
       115 -2.350161E-02 -1.442361E-11  3.740402E-01
       116 -1.175080E-02  3.125095E-11  4.274745E-01
       117 -2.350161E-02  7.346302E-11  4.274745E-01
       118 -3.525241E-02  3.124430E-11  4.274745E-01
       119 -2.350161E-02 -4.575921E-11  4.809088E-01
       120 -1.175080E-02  1.178713E-10  5.343431E-01
       121 -2.350161E-02  2.645697E-10  5.343431E-01
       122 -3.525241E-02  1.178629E-10  5.343431E-01
       123 -2.350161E-02 -2.188453E-10  5.877774E-01
       124 -1.175080E-02  5.683212E-10  6.412117E-01
       125 -2.350161E-02  1.142511E-09  6.412117E-01
       126 -3.525241E-02  5.683112E-10  6.412117E-01
       127 -2.350161E-02 -8.231592E-10  6.946460E-01
       128 -1.175080E-02  2.305082E-09  7.480804E-01
       129 -2.350161E-02  4.035736E-09  7.480803E-01
       130 -3.525241E-02  2.305073E-09  7.480804E-01
       131 -2.350161E-02 -4.311622E-09  8.015147E-01
       132 -4.700322E-02 -2.350161E-02  5.343431E-02
       133 -4.700322E-02 -1.175080E-02  1.068686E-01
       134 -4.700322E-02 -2.350161E-02  1.068686E-01
       135 -4.700322E-02 -3.525241E-02  1.068686E-01
       136 -4.700322E-02 -2.350161E-02  1.603029E-01
       137 -4.700322E-02 -1.175080E-02  2.137372E-01
       138 -4.700322E-02 -2.350161E-02  2.137372E-01
       139 -4.700322E-02 -3.525241E-02  2.137372E-01
       140 -4.700322E-02 -2.350161E-02  2.671716E-01
       141 -4.700322E-02 -1.175080E-02  3.206059E-01
       142 -4.700322E-02 -2.350161E-02  3.206059E-01
       143 -4.700322E-02 -3.525241E-02  3.206059E-01
       144 -4.700322E-02 -2.350161E-02  3.740402E-01
       145 -4.700322E-02 -1.175080E-02  4.274745E-01
       146 -4.700322E-02 -2.350161E-02  4.274745E-01
       147 -4.700322E-02 -3.525241E-02  4.274745E-01
       148 -4.700322E-02 -2.350161E-02  4.809088E-01
       149 -4.700322E-02 -1.175080E-02  5.343431E-01
       150 -4.700322E-02 -2.350161E-02  5.343431E-01
       151 -4.700322E-02 -3.525241E-02  5.343431E-01
       152 -4.700322E-02 -2.350161E-02  5.877774E-01
       153 -4.700322E-02 -1.175080E-02  6.412117E-01
       154 -4.700322E-02 -2.350161E-02  6.412117E-01
       155 -4.700322E-02 -3.525241E-02  6.412117E-01
       156 -4.700322E-02 -2.350161E-02  6.946460E-01
       157 -4.700322E-02 -1.175080E-02  7.480804E-01
       158 -4.700322E-02 -2.350161E-02  7.480803E-01
       159 -4.700322E-02 -3.525241E-02  7.480804E-01
       160 -4.700321E-02 -2.350161E-02  8.015147E-01
       161 -2.350161E-02 -4.700322E-02  5.343431E-02
       162 -3.525241E-02 -4.700322E-02  1.068686E-01
       163 -2.350161E-02 -4.700322E-02  1.068686E-01
       164 -1.175080E-02 -4.700322E-02  1.068686E-01
       165 -2.350161E-02 -4.700322E-02  1.603029E-01
       166 -3.525241E-02 -4.700322E-02  2.137372E-01
       167 -2.350161E-02 -4.700322E-02  2.137372E-01
       168 -1.175080E-02 -4.700322E-02  2.137372E-01
       169 -2.350161E-02 -4.700322E-02  2.671716E-01
       170 -3.525241E-02 -4.700322E-02  3.206059E-01
       171 -2.350161E-02 -4.700322E-02  3.206059E-01
       172 -1.175080E-02 -4.700322E-02  3.206059E-01
       173 -2.350161E-02 -4.700322E-02  3.740402E-01
       174 -3.525241E-02 -4.700322E-02  4.274745E-01
       175 -2.350161E-02 -4.700322E-02  4.274745E-01
       176 -1.175080E-02 -4.700322E-02  4.274745E-01
       177 -2.350161E-02 -4.700322E-02  4.809088E-01
       178 -3.525241E-02 -4.700322E-02  5.343431E-01
       179 -2.350161E-02 -4.700322E-02  5.343431E-01
       180 -1.175080E-02 -4.700322E-02  5.343431E-01
       181 -2.350161E-02 -4.700322E-02  5.877774E-01
       182 -3.525241E-02 -4.700322E-02  6.412117E-01
       183 -2.350161E-02 -4.700322E-02  6.412117E-01
       184 -1.175080E-02 -4.700322E-02  6.412117E-01
       185 -2.350161E-02 -4.700322E-02  6.946460E-01
       186 -3.525241E-02 -4.700322E-02  7.480804E-01
       187 -2.350161E-02 -4.700322E-02  7.480803E-01
       188 -1.175080E-02 -4.700322E-02  7.480804E-01
       189 -2.350161E-02 -4.700321E-02  8.015147E-01
       190  4.701317E-13 -2.350161E-02  5.343431E-02
       191  9.434910E-13 -3.525241E-02  1.068686E-01
       192  2.217275E-12 -2.350161E-02  1.068686E-01
       193  9.411557E-13 -1.175080E-02  1.068686E-01
       194 -3.771739E-13 -2.350161E-02  1.603029E-01
       195  2.354982E-12 -3.525241E-02  2.137372E-01
       196  6.193091E-12 -2.350161E-02  2.137372E-01
       197  2.350528E-12 -1.175080E-02  2.137372E-01
       198 -2.312707E-12 -2.350161E-02  2.671716E-01
       199  5.843934E-12 -3.525241E-02  3.206059E-01
       200  1.832735E-11 -2.350161E-02  3.206059E-01
       201  5.838827E-12 -1.175080E-02  3.206059E-01
       202 -1.453157E-11 -2.350161E-02  3.740402E-01
       203  3.111058E-11 -3.525241E-02  4.274745E-01
       204  7.332303E-11 -2.350161E-02  4.274745E-01
       205  3.110513E-11 -1.175080E-02  4.274745E-01
       206 -4.593445E-11 -2.350161E-02  4.809088E-01
       207  1.176567E-10 -3.525241E-02  5.343431E-01
       208  2.643555E-10 -2.350161E-02  5.343431E-01
       209  1.176492E-10 -1.175080E-02  5.343431E-01
       210 -2.191013E-10 -2.350161E-02  5.877774E-01
       211  5.680202E-10 -3.525241E-02  6.412117E-01
       212  1.142210E-09 -2.350161E-02  6.412117E-01
       213  5.680109E-10 -1.175080E-02  6.412117E-01
       214 -8.235066E-10 -2.350161E-02  6.946460E-01
       215  2.304686E-09 -3.525241E-02  7.480804E-01
       216  4.035341E-09 -2.350161E-02  7.480803E-01
       217  2.304677E-09 -1.175080E-02  7.480804E-01
       218 -4.312068E-09 -2.350161E-02  8.015147E-01
       219 -2.350161E-02 -2.350161E-02  5.343431E-02
       220 -2.350161E-02 -1.175080E-02  1.068686E-01
       221 -1.175080E-02 -2.350161E-02  1.068686E-01
       222 -2.350161E-02 -2.350161E-02  1.068686E-01
       223 -3.525241E-02 -2.350161E-02  1.068686E-01
       224 -2.350161E-02 -3.525241E-02  1.068686E-01
       225 -2.350161E-02 -2.350161E-02  1.603029E-01
       226 -2.350161E-02 -1.175080E-02  2.137372E-01
       227 -1.175080E-02 -2.350161E-02  2.137372E-01
       228 -2.350161E-02 -2.350161E-02  2.137372E-01
       229 -3.525241E-02 -2.350161E-02  2.137372E-01
       230 -2.350161E-02 -3.525241E-02  2.137372E-01
       231 -2.350161E-02 -2.350161E-02  2.671716E-01
       232 -2.350161E-02 -1.175080E-02  3.206059E-01
       233 -1.175080E-02 -2.350161E-02  3.206059E-01
       234 -2.350161E-02 -2.350161E-02  3.206059E-01
       235 -3.525241E-02 -2.350161E-02  3.206059E-01
       236 -2.350161E-02 -3.525241E-02  3.206059E-01
       237 -2.350161E-02 -2.350161E-02  3.740402E-01
       238 -2.350161E-02 -1.175080E-02  4.274745E-01
       239 -1.175080E-02 -2.350161E-02  4.274745E-01
       240 -2.350161E-02 -2.350161E-02  4.274745E-01
       241 -3.525241E-02 -2.350161E-02  4.274745E-01
       242 -2.350161E-02 -3.525241E-02  4.274745E-01
       243 -2.350161E-02 -2.350161E-02  4.809088E-01
       244 -2.350161E-02 -1.175080E-02  5.343431E-01
       245 -1.175080E-02 -2.350161E-02  5.343431E-01
       246 -2.350161E-02 -2.350161E-02  5.343431E-01
       247 -3.525241E-02 -2.350161E-02  5.343431E-01
       248 -2.350161E-02 -3.525241E-02  5.343431E-01
       249 -2.350161E-02 -2.350161E-02  5.877774E-01
       250 -2.350161E-02 -1.175080E-02  6.412117E-01
       251 -1.175080E-02 -2.350161E-02  6.412117E-01
       252 -2.350161E-02 -2.350161E-02  6.412117E-01
       253 -3.525241E-02 -2.350161E-02  6.412117E-01
       254 -2.350161E-02 -3.525241E-02  6.412117E-01
       255 -2.350161E-02 -2.350161E-02  6.946460E-01
       256 -2.350161E-02 -1.175080E-02  7.480804E-01
       257 -1.175080E-02 -2.350161E-02  7.480804E-01
       258 -2.350161E-02 -2.350161E-02  7.480804E-01
       259 -3.525242E-02 -2.350161E-02  7.480804E-01
       260 -2.350161E-02 -3.525242E-02  7.480804E-01
       261 -2.350161E-02 -2.350161E-02  8.015147E-01

 forces (fx,fy,fz) for set NALL and time  0.1000000E+01

         1  6.377984E-09  6.377984E-09  2.083332E-02
         2 -6.377985E-09  6.377987E-09  2.083332E-02
         3 -6.377987E-09 -6.377986E-09  2.083332E-02
         4  6.377985E-09 -6.377985E-09  2.083332E-02
         5  6.377520E-09  6.377518E-09 -2.083329E-02
         6 -6.377519E-09  6.377516E-09 -2.083329E-02
         7 -6.377517E-09 -6.377515E-09 -2.083329E-02
         8  6.377520E-09 -6.377520E-09 -2.083329E-02
         9  3.761358E-15 -2.551194E-08 -8.333329E-02
        10 -1.046728E-15  1.275597E-08  4.166664E-02
        11 -1.146479E-15 -2.551194E-08 -8.333329E-02
        12  2.551194E-08 -2.292760E-15 -8.333329E-02
        13 -1.275597E-08  1.682166E-15  4.166664E-02
        14  2.551194E-08 -2.530105E-16 -8.333329E-02
        15  2.407500E-15  2.551194E-08 -8.333329E-02
        16 -1.486666E-15 -1.275597E-08  4.166664E-02
        17  5.311063E-16  2.551194E-08 -8.333329E-02
        18 -2.551194E-08 -4.181377E-16 -8.333329E-02
        19  1.275597E-08  2.468761E-16  4.166664E-02
        20 -2.551194E-08 -2.294055E-17 -8.333329E-02
        21  2.174814E-13 -2.551240E-08  8.333326E-02
        22  3.048042E-15  1.275538E-08 -4.166658E-02
        23 -2.223180E-13 -2.551239E-08  8.333326E-02
        24  2.551240E-08  2.287771E-13  8.333326E-02
        25 -1.275539E-08  1.020816E-15 -4.166658E-02
        26  2.551240E-08 -2.270936E-13  8.333326E-02
        27 -2.235850E-13  2.551241E-08  8.333326E-02
        28 -1.395875E-15 -1.275539E-08 -4.166658E-02
        29  2.215168E-13  2.551240E-08  8.333326E-02
        30 -2.551240E-08 -2.174384E-13  8.333326E-02
        31  1.275539E-08 -3.586018E-16 -4.166658E-02
        32 -2.551240E-08  2.232585E-13  8.333326E-02
        33  2.551194E-08 -2.551194E-08  7.630615E-16
        34 -1.275597E-08  1.275597E-08 -3.976854E-16
        35  2.551194E-08 -2.551194E-08  1.664684E-15
        36 -1.275597E-08  1.275597E-08  8.081643E-16
        37  2.551194E-08 -2.551194E-08 -1.189803E-15
        38 -1.275597E-08  1.275597E-08  5.189642E-15
        39  2.551194E-08 -2.551194E-08 -5.451802E-15
        40 -1.275598E-08  1.275598E-08  1.845117E-14
        41  2.551195E-08 -2.551196E-08 -2.570643E-14
        42 -1.275597E-08  1.275597E-08  6.145236E-14
        43  2.551194E-08 -2.551194E-08 -9.353477E-14
        44 -1.275606E-08  1.275606E-08  1.910572E-13
        45  2.551211E-08 -2.551211E-08 -2.686861E-13
        46 -1.275570E-08  1.275570E-08  4.999809E-13
        47  2.551151E-08 -2.551151E-08 -8.481319E-13
        48 -2.551151E-08 -2.551151E-08 -8.502762E-13
        49  1.275570E-08  1.275570E-08  4.986041E-13
        50 -2.551211E-08 -2.551211E-08 -2.657675E-13
        51  1.275606E-08  1.275606E-08  1.901761E-13
        52 -2.551193E-08 -2.551194E-08 -9.574757E-14
        53  1.275597E-08  1.275597E-08  6.288107E-14
        54 -2.551195E-08 -2.551195E-08 -2.657759E-14
        55  1.275598E-08  1.275598E-08  1.892345E-14
        56 -2.551194E-08 -2.551194E-08 -7.127111E-15
        57  1.275597E-08  1.275597E-08  5.954655E-15
        58 -2.551194E-08 -2.551194E-08 -1.456951E-15
        59  1.275597E-08  1.275597E-08  1.610799E-15
        60 -2.551194E-08 -2.551194E-08  4.815484E-16
        61  1.275597E-08  1.275597E-08  1.492946E-16
        62 -2.551194E-08 -2.551194E-08  6.115442E-16
        63  2.551194E-08  2.551194E-08 -1.255072E-15
        64 -1.275597E-08 -1.275597E-08  1.587489E-15
        65  2.551194E-08  2.551194E-08 -3.126839E-15
        66 -1.275597E-08 -1.275597E-08  4.488597E-15
        67  2.551194E-08  2.551194E-08 -7.834879E-15
        68 -1.275597E-08 -1.275597E-08  8.472606E-15
        69  2.551194E-08  2.551194E-08 -1.281180E-14
        70 -1.275598E-08 -1.275598E-08  2.186576E-14
        71  2.551195E-08  2.551195E-08 -3.564250E-14
        72 -1.275597E-08 -1.275597E-08  6.641866E-14
        73  2.551194E-08  2.551193E-08 -1.041780E-13
        74 -1.275606E-08 -1.275606E-08  1.960723E-13
        75  2.551211E-08  2.551211E-08 -2.822725E-13
        76 -1.275570E-08 -1.275570E-08  5.074771E-13
        77  2.551151E-08  2.551151E-08 -8.661301E-13
        78 -2.551194E-08  2.551194E-08 -6.375109E-17
        79  1.275597E-08 -1.275597E-08  9.770830E-16
        80 -2.551194E-08  2.551194E-08 -3.071328E-15
        81  1.275597E-08 -1.275597E-08  3.053981E-15
        82 -2.551194E-08  2.551194E-08 -6.287072E-15
        83  1.275597E-08 -1.275597E-08  8.282871E-15
        84 -2.551194E-08  2.551194E-08 -1.478743E-14
        85  1.275598E-08 -1.275598E-08  2.286322E-14
        86 -2.551196E-08  2.551196E-08 -3.634983E-14
        87  1.275597E-08 -1.275597E-08  6.593489E-14
        88 -2.551193E-08  2.551194E-08 -1.036810E-13
        89  1.275606E-08 -1.275606E-08  1.955556E-13
        90 -2.551211E-08  2.551211E-08 -2.814257E-13
        91  1.275571E-08 -1.275570E-08  5.053863E-13
        92 -2.551151E-08  2.551151E-08 -8.631873E-13
        93 -5.506650E-16 -4.546635E-15 -1.666666E-01
        94  7.607927E-16 -1.681352E-15 -1.666666E-01
        95  3.786913E-16  2.478330E-15  8.333329E-02
        96 -3.775043E-16 -1.321686E-16 -1.666666E-01
        97  1.048548E-15 -8.852580E-16 -1.666666E-01
        98 -5.218619E-16  4.186433E-14  1.666665E-01
        99  2.900306E-14  6.264996E-15  1.666665E-01
       100 -3.761431E-15 -5.248670E-15 -8.333326E-02
       101 -2.408953E-14  3.461247E-15  1.666665E-01
       102 -3.206788E-15 -2.289153E-14  1.666665E-01
       103  2.848140E-16 -5.102388E-08  1.433641E-15
       104  3.711679E-15 -5.102388E-08  1.942511E-15
       105 -1.149038E-15  2.551195E-08 -1.375582E-15
       106 -5.602530E-16 -5.102388E-08  2.465096E-15
       107  1.120541E-15 -5.102389E-08  4.159542E-15
       108 -3.596970E-15 -5.102388E-08  5.520974E-15
       109  3.017223E-15  2.551194E-08 -1.421714E-15
       110 -9.568959E-16 -5.102388E-08  5.168771E-15
       111  1.157406E-16 -5.102388E-08  3.327959E-15
       112  2.735082E-15 -5.102388E-08  6.639763E-15
       113 -7.701653E-16  2.551195E-08  5.488177E-15
       114 -3.280695E-15 -5.102388E-08  6.618621E-15
       115 -3.568637E-16 -5.102389E-08 -4.665485E-15
       116 -7.087484E-15 -5.102389E-08  5.387672E-15
       117  2.190024E-15  2.551195E-08  1.655490E-14
       118  5.652232E-15 -5.102389E-08  5.465192E-15
       119 -2.072497E-16 -5.102390E-08 -1.931403E-14
       120  1.968344E-14 -5.102385E-08  1.102747E-14
       121 -5.742062E-16  2.551197E-08  8.734647E-14
       122 -1.836251E-14 -5.102386E-08  1.008942E-14
       123 -2.097883E-15 -5.102390E-08 -1.389071E-13
       124 -4.479227E-14 -5.102398E-08 -3.883672E-14
       125  9.420381E-16  2.551205E-08  2.668457E-13
       126  4.406386E-14 -5.102398E-08 -3.612984E-14
       127  1.868837E-15 -5.102414E-08 -3.818292E-13
       128  3.929518E-13 -5.102340E-08  8.614724E-14
       129 -7.116803E-15  2.551159E-08  7.130359E-13
       130 -3.859526E-13 -5.102340E-08  8.416098E-14
       131 -2.610570E-15 -5.102280E-08 -9.902542E-13
       132  5.102388E-08 -2.308007E-16 -1.179612E-16
       133  5.102388E-08 -5.195405E-15  2.112026E-16
       134 -2.551194E-08  3.495801E-15  1.044954E-15
       135  5.102388E-08 -1.894648E-15  4.057085E-16
       136  5.102389E-08 -6.273991E-16 -1.958720E-15
       137  5.102388E-08 -6.923515E-15  9.827208E-16
       138 -2.551194E-08  3.240973E-15  2.945127E-15
       139  5.102388E-08  8.829820E-16 -2.645453E-17
       140  5.102388E-08 -2.972698E-15 -3.255425E-15
       141  5.102388E-08  8.703708E-16 -1.249001E-16
       142 -2.551194E-08  2.635013E-15  8.816298E-15
       143  5.102388E-08 -6.052316E-15  4.286935E-16
       144  5.102389E-08 -7.819607E-16 -1.134357E-14
       145  5.102389E-08 -1.080275E-14 -3.574615E-15
       146 -2.551195E-08  2.074123E-15  1.871615E-14
       147  5.102389E-08  7.220717E-15 -2.522938E-15
       148  5.102390E-08  1.106813E-15 -2.591287E-14
       149  5.102386E-08  2.022219E-14 -6.743738E-16
       150 -2.551197E-08 -1.664969E-15  9.190088E-14
       151  5.102385E-08 -2.042348E-14 -8.595555E-16
       152  5.102390E-08  7.141371E-16 -1.519574E-13
       153  5.102398E-08 -4.878852E-14 -4.858093E-14
       154 -2.551205E-08 -1.236779E-15  2.741449E-13
       155  5.102398E-08  5.273075E-14 -5.156119E-14
       156  5.102414E-08 -5.317665E-15 -3.933423E-13
       157  5.102340E-08  3.992772E-13  7.095865E-14
       158 -2.551159E-08  1.593905E-16  7.212072E-13
       159  5.102340E-08 -3.986013E-13  7.365137E-14
       160  5.102279E-08 -7.666523E-16 -1.004602E-12
       161 -5.761959E-16  5.102388E-08 -4.501607E-16
       162  3.115811E-15  5.102388E-08 -2.165369E-15
       163 -1.249040E-15 -2.551194E-08  1.227967E-15
       164 -5.791115E-16  5.102388E-08 -3.308985E-15
       165  1.737537E-15  5.102389E-08 -4.218847E-15
       166  2.781310E-15  5.102388E-08 -6.262785E-15
       167 -4.198588E-16 -2.551194E-08  5.116567E-15
       168 -9.871298E-16  5.102389E-08 -4.872405E-15
       169  3.172919E-16  5.102388E-08 -1.036107E-14
       170 -1.675666E-15  5.102388E-08 -8.032637E-15
       171 -7.407104E-16 -2.551194E-08  1.256699E-14
       172  2.163170E-15  5.102388E-08 -7.354360E-15
       173 -3.871988E-16  5.102389E-08 -2.093313E-14
       174  9.409715E-15  5.102389E-08 -1.346969E-14
       175 -1.449406E-15 -2.551195E-08  2.324985E-14
       176 -7.236686E-15  5.102390E-08 -1.471002E-14
       177  9.678760E-16  5.102389E-08 -3.581553E-14
       178 -1.323997E-14  5.102385E-08 -1.386131E-14
       179 -9.913109E-15 -2.551196E-08  9.536707E-14
       180  2.936385E-14  5.102385E-08 -1.313901E-14
       181 -1.321490E-15  5.102390E-08 -1.618003E-13
       182  4.893646E-14  5.102398E-08 -6.375217E-14
       183  4.398694E-15 -2.551205E-08  2.802179E-13
       184 -5.565354E-14  5.102398E-08 -6.557146E-14
       185  6.706766E-17  5.102415E-08 -4.094724E-13
       186 -3.988286E-13  5.102340E-08  5.612004E-14
       187  6.771742E-15 -2.551159E-08  7.279745E-13
       188  3.850313E-13  5.102341E-08  5.560786E-14
       189 -7.104082E-17  5.102280E-08 -1.020603E-12
       190 -5.102388E-08 -1.171559E-15  8.861726E-16
       191 -5.102388E-08 -4.782659E-15 -3.488420E-16
       192  2.551194E-08  3.931586E-15  6.171279E-16
       193 -5.102388E-08 -1.827238E-15 -7.272286E-16
       194 -5.102388E-08 -7.654371E-16 -1.903263E-15
       195 -5.102389E-08 -2.647657E-15 -4.183936E-16
       196  2.551194E-08  1.474307E-15  2.474908E-15
       197 -5.102388E-08 -3.201419E-16  4.201283E-16
       198 -5.102388E-08 -2.903937E-15 -3.418110E-15
       199 -5.102388E-08 -5.094117E-15 -2.012821E-15
       200  2.551194E-08  5.155617E-15  7.756979E-15
       201 -5.102388E-08 -3.393221E-15 -2.463362E-15
       202 -5.102389E-08 -1.372719E-15 -1.315452E-14
       203 -5.102390E-08  1.280629E-14 -6.164123E-15
       204  2.551194E-08 -2.690479E-15  1.931642E-14
       205 -5.102389E-08 -8.842232E-15 -5.063712E-15
       206 -5.102390E-08 -3.680565E-15 -2.774490E-14
       207 -5.102385E-08 -1.750022E-14 -2.882406E-15
       208  2.551196E-08  2.582761E-16  9.172860E-14
       209 -5.102385E-08  1.562167E-14 -4.473472E-15
       210 -5.102390E-08 -4.230879E-16 -1.514582E-13
       211 -5.102398E-08  5.053080E-14 -5.180697E-14
       212  2.551206E-08  3.232040E-16  2.742862E-13
       213 -5.102398E-08 -4.762999E-14 -5.287258E-14
       214 -5.102415E-08  3.045636E-15 -3.955916E-13
       215 -5.102341E-08 -3.933076E-13  6.753880E-14
       216  2.551160E-08  3.661706E-15  7.184795E-13
       217 -5.102340E-08  3.880612E-13  6.987867E-14
       218 -5.102280E-08 -3.528562E-15 -1.005174E-12
       219 -6.770816E-16 -2.505189E-15  1.093581E-15
       220 -5.447237E-16 -8.808946E-15 -1.088214E-15
       221  1.921821E-15 -4.131434E-16 -4.678332E-16
       222 -3.934461E-15  8.201699E-15  2.815673E-16
       223  4.060665E-15 -2.691109E-16 -5.099003E-16
       224 -3.124223E-16 -5.808555E-15 -7.608389E-16
       225 -1.287293E-15 -2.000946E-15 -7.715725E-16
       226  2.986521E-16 -5.084406E-15  6.025454E-16
       227 -5.062404E-15 -3.743889E-15  7.580742E-16
       228  1.696013E-15  3.823460E-15  1.409029E-15
       229  2.770165E-16 -3.090228E-15  8.840585E-16
       230  1.186261E-15 -5.493385E-16  1.101549E-16
       231 -1.112771E-15 -3.570922E-15 -1.839837E-15
       232 -1.056966E-15 -2.794158E-15 -2.912709E-15
       233  5.248420E-15 -1.948828E-15 -3.334789E-15
       234 -1.354205E-16  8.494972E-15  1.377251E-14
       235 -4.715671E-15 -2.784425E-15 -2.167862E-15
       236 -1.774066E-15 -1.134565E-14 -1.973736E-15
       237  1.822441E-15 -1.206249E-15 -2.377682E-14
       238 -1.159070E-15 -1.644461E-14 -3.302534E-15
       239 -4.691484E-15 -4.828081E-15 -1.597897E-15
       240 -3.624153E-15  1.762838E-15  1.992129E-14
       241  1.230861E-14  1.455872E-15 -2.534268E-15
       242  4.696291E-15  1.083049E-14 -1.209319E-15
       243 -7.253237E-16  2.293256E-15 -9.888791E-15
       244 -2.209363E-15  2.104444E-14 -8.300001E-15
       245  3.184526E-14 -1.356230E-15 -9.242227E-15
       246 -3.254062E-16  6.814939E-15  1.243076E-13
       247 -2.682114E-14  2.487110E-15 -7.880252E-15
       248  2.084183E-15 -3.059168E-14 -9.392552E-15
       249  2.870001E-15 -4.506101E-16 -2.415093E-13
       250  4.293357E-15 -8.791573E-14 -6.305763E-14
       251 -9.084667E-14  3.193945E-15 -6.229967E-14
       252  7.568680E-15  3.327061E-15  3.694802E-13
       253  7.338968E-14 -1.494235E-15 -6.261544E-14
       254 -9.129874E-17  8.277710E-14 -6.464214E-14
       255  2.084580E-15 -4.070486E-15 -4.289995E-13
       256 -1.174800E-15  6.598076E-13  2.917428E-13
       257  6.415916E-13 -5.450008E-15  2.913090E-13
       258  8.012717E-15 -1.601216E-15  7.764816E-13
       259 -6.542542E-13 -7.997296E-16  2.931168E-13
       260  3.542074E-15 -6.527334E-13  2.921400E-13
       261  5.286390E-15 -3.518345E-15 -1.075447E-12

 stresses (elem, integ.pnt.,sxx,syy,szz,sxy,sxz,syz) for set EALL and time  0.1000000E+01

         1   1  1.451440E-07  1.451441E-07  1.101075E+00 -7.154085E-12  2.392810E-11  2.394247E-11
         1   2  1.450792E-07  1.450811E-07  1.101075E+00 -7.761052E-12  8.971626E-12 -1.657839E-11
         1   3  1.450812E-07  1.450792E-07  1.101075E+00 -7.753179E-12 -1.658129E-11  8.981194E-12
         1   4  1.451393E-07  1.451393E-07  1.101075E+00 -7.551709E-12 -1.621158E-11 -1.620837E-11
         1   5  1.449840E-07  1.449840E-07  1.101075E+00  1.466036E-11  2.086561E-11  2.087950E-11
         1   6  1.452286E-07  1.452250E-07  1.101075E+00  1.699055E-11 -1.728340E-11  1.192898E-11
         1   7  1.452251E-07  1.452286E-07  1.101075E+00  1.699551E-11  1.192338E-11 -1.725955E-11
         1   8  1.450009E-07  1.450009E-07  1.101075E+00  1.589660E-11 -7.906293E-12 -7.896239E-12
         2   1  1.450792E-07  1.450811E-07  1.101075E+00  7.757941E-12 -8.977475E-12 -1.658147E-11
         2   2  1.451440E-07  1.451440E-07  1.101075E+00  7.160039E-12 -2.393488E-11  2.392240E-11
         2   3  1.451393E-07  1.451393E-07  1.101075E+00  7.551901E-12  1.621150E-11 -1.621026E-11
         2   4  1.450812E-07  1.450792E-07  1.101075E+00  7.760644E-12  1.658169E-11  8.971076E-12
         2   5  1.452286E-07  1.452250E-07  1.101075E+00 -1.699381E-11  1.726551E-11  1.193096E-11
         2   6  1.449840E-07  1.449840E-07  1.101075E+00 -1.466140E-11 -2.087710E-11  2.087575E-11
         2   7  1.450009E-07  1.450009E-07  1.101075E+00 -1.589737E-11  7.902369E-12 -7.899044E-12
         2   8  1.452251E-07  1.452286E-07  1.101075E+00 -1.699464E-11 -1.192508E-11 -1.727619E-11
         3   1  1.450811E-07  1.450792E-07  1.101075E+00  7.762546E-12 -1.658118E-11 -8.969917E-12
         3   2  1.451393E-07  1.451393E-07  1.101075E+00  7.556220E-12 -1.621074E-11  1.621431E-11
         3   3  1.451440E-07  1.451440E-07  1.101075E+00  7.157728E-12  2.393216E-11 -2.392764E-11
         3   4  1.450792E-07  1.450811E-07  1.101075E+00  7.758959E-12  8.977034E-12  1.658281E-11
         3   5  1.452250E-07  1.452286E-07  1.101075E+00 -1.699034E-11  1.192322E-11  1.729010E-11