
 displacements (vx,vy,vz) for set N1 and time  0.1000000E+01

       105  3.705134E-18  2.068908E-03  2.619720E-03
       125  6.824163E-17  3.958220E-02  2.478994E-03
