
 displacements (vx,vy,vz) for set NALL and time  0.5000000E-05

         1  0.000000E+00  0.000000E+00  0.000000E+00
         2  0.000000E+00  0.000000E+00  0.000000E+00
         3  0.000000E+00  0.000000E+00  0.000000E+00
         4  0.000000E+00  0.000000E+00  0.000000E+00
         5  4.085722E-05 -1.300752E-02 -2.735746E-03
         6 -4.085722E-05 -1.300752E-02 -2.735746E-03
         7  4.061172E-05 -1.301773E-02  2.702323E-03
         8 -4.061172E-05 -1.301773E-02  2.702323E-03
         9  0.000000E+00  0.000000E+00  0.000000E+00
        10  0.000000E+00  0.000000E+00  0.000000E+00
        11  0.000000E+00  0.000000E+00  0.000000E+00
        12  0.000000E+00  0.000000E+00  0.000000E+00
        13  0.000000E+00  0.000000E+00  0.000000E+00
        14  0.000000E+00  0.000000E+00  0.000000E+00
        15  0.000000E+00  0.000000E+00  0.000000E+00
        16  0.000000E+00  0.000000E+00  0.000000E+00
        17  0.000000E+00  0.000000E+00  0.000000E+00
        18  0.000000E+00  0.000000E+00  0.000000E+00
        19  0.000000E+00  0.000000E+00  0.000000E+00
        20  0.000000E+00  0.000000E+00  0.000000E+00
        21  1.959706E-05 -1.295688E-02 -2.744072E-03
        22 -9.531870E-19 -1.294663E-02 -2.739162E-03
        23 -1.959706E-05 -1.295688E-02 -2.744072E-03
        24 -1.058969E-05 -1.294647E-02 -1.331693E-03
        25 -5.094554E-08 -1.291643E-02 -1.663683E-05
        26  1.043584E-05 -1.295121E-02  1.298189E-03
        27  1.948900E-05 -1.296711E-02  2.710705E-03
        28  5.456977E-19 -1.295678E-02  2.705810E-03
        29 -1.948900E-05 -1.296711E-02  2.710705E-03
        30 -1.043584E-05 -1.295121E-02  1.298189E-03
        31  5.094554E-08 -1.291643E-02 -1.663683E-05
        32  1.058969E-05 -1.294647E-02 -1.331693E-03
        33  1.366562E-05  2.227145E-05 -3.165911E-05
        34  2.245743E-05  1.957035E-05 -9.135342E-05
        35  3.200762E-05 -3.474475E-05 -1.852519E-04
        36  4.091161E-05 -1.616077E-04 -3.066215E-04
        37  4.916263E-05 -3.798585E-04 -4.566787E-04
        38  5.740723E-05 -7.083449E-04 -6.337680E-04
        39  6.501981E-05 -1.166756E-03 -8.388350E-04
        40  7.212690E-05 -1.774005E-03 -1.067207E-03
        41  7.727263E-05 -2.546954E-03 -1.317219E-03
        42  8.106574E-05 -3.500822E-03 -1.580198E-03
        43  7.944177E-05 -4.646818E-03 -1.850045E-03
        44  7.523832E-05 -5.988284E-03 -2.112018E-03
        45  6.702778E-05 -7.510408E-03 -2.348453E-03
        46  5.379759E-05 -9.203763E-03 -2.540986E-03
        47  1.690293E-05 -1.103837E-02 -2.668748E-03
        48 -1.690293E-05 -1.103837E-02 -2.668748E-03
        49 -5.379759E-05 -9.203763E-03 -2.540986E-03
        50 -6.702778E-05 -7.510408E-03 -2.348453E-03
        51 -7.523832E-05 -5.988284E-03 -2.112018E-03
        52 -7.944177E-05 -4.646818E-03 -1.850045E-03
        53 -8.106574E-05 -3.500822E-03 -1.580198E-03
        54 -7.727263E-05 -2.546954E-03 -1.317219E-03
        55 -7.212690E-05 -1.774005E-03 -1.067207E-03
        56 -6.501981E-05 -1.166756E-03 -8.388350E-04
        57 -5.740723E-05 -7.083449E-04 -6.337680E-04
        58 -4.916263E-05 -3.798585E-04 -4.566787E-04
        59 -4.091161E-05 -1.616077E-04 -3.066215E-04
        60 -3.200762E-05 -3.474475E-05 -1.852519E-04
        61 -2.245743E-05  1.957035E-05 -9.135342E-05
        62 -1.366562E-05  2.227145E-05 -3.165911E-05
        63 -1.370928E-05  2.221541E-05  3.179119E-05
        64 -2.249663E-05  1.949020E-05  9.161175E-05
        65 -3.204694E-05 -3.486472E-05  1.856234E-04
        66 -4.095296E-05 -1.618164E-04  3.070647E-04
        67 -4.919968E-05 -3.802249E-04  4.571130E-04
        68 -5.744730E-05 -7.089843E-04  6.340520E-04
        69 -6.505207E-05 -1.167805E-03  8.387386E-04
        70 -7.216579E-05 -1.775654E-03  1.066391E-03
        71 -7.730246E-05 -2.549406E-03  1.315204E-03
        72 -8.110850E-05 -3.504305E-03  1.576352E-03
        73 -7.947545E-05 -4.651539E-03  1.843572E-03
        74 -7.529415E-05 -5.994386E-03  2.101977E-03
        75 -6.709238E-05 -7.517885E-03  2.333844E-03
        76 -5.390925E-05 -9.212425E-03  2.520799E-03
        77 -1.700138E-05 -1.104783E-02  2.642329E-03
        78  1.370928E-05  2.221541E-05  3.179119E-05
        79  2.249663E-05  1.949020E-05  9.161175E-05
        80  3.204694E-05 -3.486472E-05  1.856234E-04
        81  4.095296E-05 -1.618164E-04  3.070647E-04
        82  4.919968E-05 -3.802249E-04  4.571130E-04
        83  5.744730E-05 -7.089843E-04  6.340520E-04
        84  6.505207E-05 -1.167805E-03  8.387386E-04
        85  7.216579E-05 -1.775654E-03  1.066391E-03
        86  7.730246E-05 -2.549406E-03  1.315204E-03
        87  8.110850E-05 -3.504305E-03  1.576352E-03
        88  7.947545E-05 -4.651539E-03  1.843572E-03
        89  7.529415E-05 -5.994386E-03  2.101977E-03
        90  6.709238E-05 -7.517885E-03  2.333844E-03
        91  5.390925E-05 -9.212425E-03  2.520799E-03
        92  1.700138E-05 -1.104783E-02  2.642329E-03
        93  0.000000E+00  0.000000E+00  0.000000E+00
        94  0.000000E+00  0.000000E+00  0.000000E+00
        95  0.000000E+00  0.000000E+00  0.000000E+00
        96  0.000000E+00  0.000000E+00  0.000000E+00
        97  0.000000E+00  0.000000E+00  0.000000E+00
        98 -1.054974E-18 -1.291055E-02 -1.343166E-03
        99  2.533076E-08 -1.289648E-02 -1.662349E-05
       100 -1.330925E-18 -1.289041E-02 -1.662019E-05
       101 -2.533076E-08 -1.289648E-02 -1.662349E-05
       102 -1.833170E-19 -1.291536E-02  1.309783E-03
       103 -5.839532E-20  1.820188E-05 -2.818037E-05
       104 -1.119777E-05  1.407442E-05 -8.865619E-05
       105 -1.614151E-19  1.222057E-05 -8.880235E-05
       106  1.119777E-05  1.407442E-05 -8.865619E-05
       107 -2.682428E-19 -4.532336E-05 -1.824209E-04
       108 -2.045588E-05 -1.719480E-04 -3.042822E-04
       109 -3.975356E-19 -1.753746E-04 -3.038036E-04
       110  2.045588E-05 -1.719480E-04 -3.042822E-04
       111 -6.889649E-19 -3.963291E-04 -4.539304E-04
       112 -2.869461E-05 -7.227549E-04 -6.315020E-04
       113 -1.067752E-18 -7.275207E-04 -6.311977E-04
       114  2.869461E-05 -7.227549E-04 -6.315020E-04
       115 -1.489441E-18 -1.188541E-03 -8.364623E-04
       116 -3.606181E-05 -1.792121E-03 -1.065479E-03
       117 -2.255530E-18 -1.798156E-03 -1.065262E-03
       118  3.606181E-05 -1.792121E-03 -1.065479E-03
       119 -2.273529E-18 -2.573070E-03 -1.315894E-03
       120 -4.050813E-05 -3.521792E-03 -1.579954E-03
       121 -2.505513E-18 -3.528258E-03 -1.580002E-03
       122  4.050813E-05 -3.521792E-03 -1.579954E-03
       123 -2.362980E-18 -4.673626E-03 -1.850900E-03
       124 -3.769170E-05 -6.006106E-03 -2.113760E-03
       125 -2.511125E-18 -6.013020E-03 -2.114019E-03
       126  3.769170E-05 -6.006106E-03 -2.113760E-03
       127 -3.072907E-18 -7.534558E-03 -2.352812E-03
       128 -2.666955E-05 -9.222398E-03 -2.547540E-03
       129 -4.193642E-18 -9.221821E-03 -2.549112E-03
       130  2.666955E-05 -9.222398E-03 -2.547540E-03
       131 -3.612181E-18 -1.104223E-02 -2.679071E-03
       132 -1.930185E-08  3.695614E-05  5.665494E-08
       133  1.184995E-05  3.339235E-05 -5.652738E-05
       134 -1.758317E-08  3.805213E-05  1.220914E-07
       135 -1.188575E-05  3.335023E-05  5.677340E-05
       136 -1.292700E-08 -1.100869E-05  1.792011E-07
       137  2.020216E-05 -1.390203E-04 -1.623333E-04
       138 -9.280527E-09 -1.316749E-04  2.198060E-07
       139 -2.022866E-05 -1.391349E-04  1.627757E-04
       140 -1.905307E-09 -3.435166E-04  2.222865E-07
       141  2.865262E-05 -6.764488E-04 -3.254629E-04
       142  1.954409E-09 -6.661162E-04  1.591816E-07
       143 -2.866355E-05 -6.767889E-04  3.257739E-04
       144  1.193732E-08 -1.119456E-03 -1.542325E-08
       145  3.579855E-05 -1.734438E-03 -5.400400E-04
       146  1.457572E-08 -1.722141E-03 -3.525567E-07
       147 -3.579302E-05 -1.735292E-03  5.393095E-04
       148  2.353990E-08 -2.492706E-03 -9.261396E-07
       149  3.982439E-05 -3.457988E-03 -7.921441E-04
       150  2.010519E-08 -3.445159E-03 -1.810493E-06
       151 -3.981190E-05 -3.459752E-03  7.884701E-04
       152  2.236589E-08 -4.593077E-03 -3.094623E-06
       153  3.724407E-05 -5.947314E-03 -1.049523E-03
       154  7.156223E-09 -5.937071E-03 -4.847529E-06
       155 -3.725779E-05 -5.950334E-03  1.039743E-03
       156 -1.145627E-08 -7.472683E-03 -7.134125E-06
       157  2.323270E-05 -9.184017E-03 -1.255465E-03
       158 -3.572623E-08 -9.175515E-03 -9.943030E-06
       159 -2.331364E-05 -9.188210E-03  1.235533E-03
       160 -3.296149E-08 -1.102662E-02 -1.321429E-05
       161  8.972771E-20  1.814395E-05  2.830712E-05
       162 -1.121722E-05  1.399207E-05  8.891642E-05
       163  1.991864E-19  1.213747E-05  8.906416E-05
       164  1.121722E-05  1.399207E-05  8.891642E-05
       165  2.514093E-19 -4.544667E-05  1.827915E-04
       166 -2.047566E-05 -1.721619E-04  3.047217E-04
       167  2.794070E-19 -1.755892E-04  3.042417E-04
       168  2.047566E-05 -1.721619E-04  3.047217E-04
       169  2.361529E-19 -3.967038E-04  4.543511E-04
       170 -2.871293E-05 -7.234042E-04  6.317678E-04
       171  1.958408E-19 -7.281712E-04  6.314571E-04
       172  2.871293E-05 -7.234042E-04  6.317678E-04
       173  3.890979E-19 -1.189605E-03  8.363242E-04
       174 -3.607845E-05 -1.793785E-03  1.064616E-03
       175  4.710548E-19 -1.799822E-03  1.064383E-03
       176  3.607845E-05 -1.793785E-03  1.064616E-03
       177  3.860514E-19 -2.575543E-03  1.313791E-03
       178 -4.052549E-05 -3.525299E-03  1.576021E-03
       179 -1.954307E-19 -3.531768E-03  1.576041E-03
       180  4.052549E-05 -3.525299E-03  1.576021E-03
       181 -2.779238E-19 -4.678374E-03  1.844287E-03
       182 -3.771664E-05 -6.012235E-03  2.103602E-03
       183 -4.401761E-19 -6.019151E-03  2.103822E-03
       184  3.771664E-05 -6.012235E-03  2.103602E-03
       185  1.174773E-19 -7.542078E-03  2.338036E-03
       186 -2.672237E-05 -9.231118E-03  2.527245E-03
       187  1.226355E-18 -9.230556E-03  2.528800E-03
       188  2.672237E-05 -9.231118E-03  2.527245E-03
       189  1.082198E-18 -1.105177E-02  2.652534E-03
       190  1.930185E-08  3.695614E-05  5.665494E-08
       191  1.188575E-05  3.335023E-05  5.677340E-05
       192  1.758317E-08  3.805213E-05  1.220914E-07
       193 -1.184995E-05  3.339235E-05 -5.652738E-05
       194  1.292700E-08 -1.100869E-05  1.792011E-07
       195  2.022866E-05 -1.391349E-04  1.627757E-04
       196  9.280527E-09 -1.316749E-04  2.198060E-07
       197 -2.020216E-05 -1.390203E-04 -1.623333E-04
       198  1.905307E-09 -3.435166E-04  2.222865E-07
       199  2.866355E-05 -6.767889E-04  3.257739E-04
       200 -1.954409E-09 -6.661162E-04  1.591816E-07
       201 -2.865262E-05 -6.764488E-04 -3.254629E-04
       202 -1.193732E-08 -1.119456E-03 -1.542325E-08
       203  3.579302E-05 -1.735292E-03  5.393095E-04
       204 -1.457572E-08 -1.722141E-03 -3.525567E-07
       205 -3.579855E-05 -1.734438E-03 -5.400400E-04
       206 -2.353990E-08 -2.492706E-03 -9.261396E-07
       207  3.981190E-05 -3.459752E-03  7.884701E-04
       208 -2.010519E-08 -3.445159E-03 -1.810493E-06
       209 -3.982439E-05 -3.457988E-03 -7.921441E-04
       210 -2.236589E-08 -4.593077E-03 -3.094623E-06
       211  3.725779E-05 -5.950334E-03  1.039743E-03
       212 -7.156223E-09 -5.937071E-03 -4.847529E-06
       213 -3.724407E-05 -5.947314E-03 -1.049523E-03
       214  1.145627E-08 -7.472683E-03 -7.134125E-06
       215  2.331364E-05 -9.188210E-03  1.235533E-03
       216  3.572623E-08 -9.175515E-03 -9.943030E-06
       217 -2.323270E-05 -9.184017E-03 -1.255465E-03
       218  3.296149E-08 -1.102662E-02 -1.321429E-05
       219  7.326481E-21  3.204238E-05  5.364630E-08
       220 -8.161986E-20  2.592506E-05 -5.435810E-05
       221  8.740335E-09  3.207598E-05  1.229353E-07
       222 -7.532280E-21  3.043521E-05  1.237188E-07
       223 -8.740335E-09  3.207598E-05  1.229353E-07
       224  9.415454E-20  2.588148E-05  5.460744E-05
       225 -1.885814E-20 -2.174836E-05  1.790179E-07
       226 -2.559493E-19 -1.526296E-04 -1.603328E-04
       227  4.297037E-09 -1.417156E-04  2.183781E-07
       228 -6.542252E-20 -1.451246E-04  2.175121E-07
       229 -4.297037E-09 -1.417156E-04  2.183781E-07
       230  7.452512E-20 -1.527486E-04  1.607700E-04
       231 -1.448560E-19 -3.598185E-04  2.156993E-07
       232 -6.884125E-19 -6.955314E-04 -3.235427E-04
       233 -1.697559E-09 -6.804268E-04  1.504086E-07
       234 -2.516508E-19 -6.851585E-04  1.471180E-07
       235  1.697559E-09 -6.804268E-04  1.504086E-07
       236  4.512190E-20 -6.958795E-04  3.238291E-04
       237 -4.294642E-19 -1.140964E-03 -3.587030E-08
       238 -1.040756E-18 -1.758365E-03 -5.386379E-04
       239 -8.423139E-09 -1.739921E-03 -3.749427E-07
       240 -5.569528E-19 -1.745860E-03 -3.827727E-07
       241  8.423139E-09 -1.739921E-03 -3.749427E-07
       242  5.866152E-20 -1.759232E-03  5.378458E-04
       243 -5.545127E-19 -2.518065E-03 -9.687237E-07
       244 -1.800588E-18 -3.484658E-03 -7.918791E-04
       245 -1.169614E-08 -3.465046E-03 -1.852116E-06
       246 -5.532502E-19 -3.471489E-03 -1.866197E-06
       247  1.169614E-08 -3.465046E-03 -1.852116E-06
       248 -7.146391E-19 -3.486440E-03  7.880920E-04
       249 -7.191133E-19 -4.618888E-03 -3.162970E-06
       250 -1.678246E-18 -5.972176E-03 -1.051440E-03
       251 -4.531025E-09 -5.954949E-03 -4.906448E-06
       252 -8.006816E-19 -5.961290E-03 -4.925126E-06
       253  4.531025E-09 -5.954949E-03 -4.906448E-06
       254 -6.162937E-19 -5.975224E-03  1.041506E-03
       255 -1.118928E-18 -7.493915E-03 -7.206858E-06
       256 -2.088746E-18 -9.198409E-03 -1.260138E-03
       257  1.639165E-08 -9.188569E-03 -9.986263E-06
       258 -1.598436E-18 -9.190600E-03 -9.996333E-06
       259 -1.639165E-08 -9.188569E-03 -9.986263E-06
       260 -4.110247E-19 -9.202637E-03  1.240085E-03
       261 -1.767594E-18 -1.103055E-02 -1.325730E-05

 stresses (elem, integ.pnt.,sxx,syy,szz,sxy,sxz,syz) for set EALL and time  0.5000000E-05

         1   1 -2.780597E+00 -2.545737E+00 -1.112873E+01  4.434523E-02 -1.679544E+00  5.112469E+00
         1   2 -2.310395E+00 -2.103281E+00 -9.990516E+00  1.185123E-02 -9.088843E-01  4.699622E+00
         1   3 -2.015959E+00 -1.826477E+00 -9.272517E+00 -2.020812E-02 -1.408604E-01  4.487712E+00
         1   4 -2.394877E+00 -2.077182E+00 -8.460798E+00  3.835868E-02 -9.673720E-01  6.833862E+00
         1   5 -2.108110E+00 -1.820062E+00 -7.754645E+00  4.233571E-03 -5.185059E-01  6.371872E+00
         1   6 -1.917081E+00 -1.648526E+00 -7.281967E+00 -2.945090E-02 -7.112759E-02  6.123844E+00
         1   7 -4.855326E-01 -5.755793E-02 -2.146134E+00  3.208984E-02 -2.204901E-01  8.111555E+00
         1   8 -4.325051E-01 -3.605652E-02 -1.989391E+00 -3.698856E-03 -1.170873E-01  7.599765E+00
         1   9 -3.951722E-01 -2.006844E-02 -1.879359E+00 -3.903881E-02 -1.401689E-02  7.314982E+00
         1  10  1.921539E-01  8.777976E-01 -1.744356E+01  7.594898E-02 -6.017344E-01  3.308156E+00
         1  11  3.146418E-01  9.232441E-01 -1.702124E+01  1.039351E-02 -2.850593E-01  2.854002E+00
         1  12  2.873793E-01  8.637587E-01 -1.699308E+01 -5.316754E-02  2.896361E-02  2.671934E+00
         1  13 -3.890671E-01  4.250171E-01 -1.174704E+01  8.358270E-02 -3.178472E-01  5.906747E+00
         1  14 -3.188269E-01  4.100776E-01 -1.146459E+01  1.091445E-02 -1.243819E-01  5.385430E+00
         1  15 -3.182938E-01  3.702796E-01 -1.138955E+01 -5.975604E-02  6.759242E-02  5.149228E+00
         1  16  3.879818E-01  1.452678E+00 -2.473906E+00  8.969148E-02 -6.626058E-02  8.061709E+00
         1  17  3.556815E-01  1.327068E+00 -2.448659E+00  9.892895E-03 -1.968115E-02  7.472579E+00
         1  18  3.337234E-01  1.256671E+00 -2.444068E+00 -6.790358E-02  2.657001E-02  7.181620E+00
         1  19  6.595401E-01  1.247865E+00 -2.542420E+01 -8.117843E-02  9.720261E-02  3.348175E+00
         1  20  4.876310E-01  1.020760E+00 -2.566430E+01 -5.724335E-02 -4.008725E-02  2.963210E+00
         1  21  1.920193E-01  7.494792E-01 -2.627242E+01 -2.975605E-02 -1.800328E-01  2.921457E+00
         1  22 -2.453943E-01  1.496767E-01 -1.642383E+01 -6.517602E-03  1.185731E-01  6.823773E+00
         1  23 -3.383678E-01 -1.288482E-02 -1.651172E+01  4.797891E-03  5.661802E-02  6.353615E+00
         1  24 -4.749899E-01 -1.395387E-01 -1.678092E+01  1.966708E-02 -6.827825E-03  6.239712E+00
         1  25  4.280323E-02  4.615827E-01 -3.916162E+00  6.536506E-02  4.061278E-02  9.855887E+00
         1  26 -2.152977E-02  3.132679E-01 -3.969136E+00  6.406470E-02  3.032557E-02  9.299902E+00
         1  27 -4.945331E-02  2.809432E-01 -4.016650E+00  6.631910E-02  1.971393E-02  9.113247E+00
         2   1 -2.015959E+00 -1.826477E+00 -9.272517E+00  2.020812E-02  1.408604E-01  4.487712E+00
         2   2 -2.310395E+00 -2.103281E+00 -9.990516E+00 -1.185123E-02  9.088843E-01  4.699622E+00
         2   3 -2.780597E+00 -2.545737E+00 -1.112873E+01 -4.434523E-02  1.679544E+00  5.112469E+00
         2   4 -1.917081E+00 -1.648526E+00 -7.281967E+00  2.945090E-02  7.112759E-02  6.123844E+00
         2   5 -2.108110E+00 -1.820062E+00 -7.754645E+00 -4.233571E-03  5.185059E-01  6.371872E+00
         2   6 -2.394877E+00 -2.077182E+00 -8.460798E+00 -3.835868E-02  9.673720E-01  6.833862E+00
         2   7 -3.951722E-01 -2.006844E-02 -1.879359E+00  3.903881E-02  1.401689E-02  7.314982E+00
         2   8 -4.325051E-01 -3.605652E-02 -1.989391E+00  3.698856E-03  1.170873E-01  7.599765E+00
         2   9 -4.855326E-01 -5.755793E-02 -2.146134E+00 -3.208984E-02  2.204901E-01  8.111555E+00
         2  10  2.873793E-01  8.637587E-01 -1.699308E+01  5.316754E-02 -2.896361E-02  2.671934E+00
         2  11  3.146418E-01  9.232441E-01 -1.702124E+01 -1.039351E-02  2.850593E-01  2.854002E+00
         2  12  1.921539E-01  8.777976E-01 -1.744356E+01 -7.594898E-02  6.017344E-01  3.308156E+00
         2  13 -3.182938E-01  3.702796E-01 -1.138955E+01  5.975604E-02 -6.759242E-02  5.149228E+00
         2  14 -3.188269E-01  4.100776E-01 -1.146459E+01 -1.091445E-02  1.243819E-01  5.385430E+00
         2  15 -3.890671E-01  4.250171E-01 -1.174704E+01 -8.358270E-02  3.178472E-01  5.906747E+00
         2  16  3.337234E-01  1.256671E+00 -2.444068E+00  6.790358E-02 -2.657001E-02  7.181620E+00
         2  17  3.556815E-01  1.327068E+00 -2.448659E+00 -9.892895E-03  1.968115E-02  7.472579E+00
         2  18  3.879818E-01  1.452678E+00 -2.473906E+00 -8.969148E-02  6.626058E-02  8.061709E+00
         2  19  1.920193E-01  7.494792E-01 -2.627242E+01  2.975605E-02  1.800328E-01  2.921457E+00
         2  20  4.876310E-01  1.020760E+00 -2.566430E+01  5.724335E-02  4.008725E-02  2.963210E+00
         2  21  6.595401E-01  1.247865E+00 -2.542420E+01  8.117843E-02 -9.720261E-02  3.348175E+00
         2  22 -4.749899E-01 -1.395387E-01 -1.678092E+01 -1.966708E-02  6.827825E-03  6.239712E+00
         2  23 -3.383678E-01 -1.288482E-02 -1.651172E+01 -4.797891E-03 -5.661802E-02  6.353615E+00
         2  24 -2.453943E-01  1.496767E-01 -1.642383E+01  6.517602E-03 -1.185731E-01  6.823773E+00
         2  25 -4.945331E-02  2.809432E-01 -4.016650E+00 -6.631910E-02 -1.971393E-02  9.113247E+00
         2  26 -2.152977E-02  3.132679E-01 -3.969136E+00 -6.406470E-02 -3.032557E-02  9.299902E+00
         2  27  4.280323E-02  4.615827E-01 -3.916162E+00 -6.536506E-02 -4.061278E-02  9.855887E+00
         3   1  5.032747E-01  7.877928E-02  2.204917E+00  3.227857E-02  2.273454E-01  8.111156E+00
         3   2  4.491609E-01  5.577789E-02  2.045608E+00 -3.598569E-03  1.207478E-01  7.599309E+00
         3   3  4.108089E-01  3.854575E-02  1.933159E+00 -3.902087E-02  1.449549E-02  7.314496E+00
         3   4  2.414245E+00  2.099546E+00  8.524528E+00  3.879589E-02  9.747598E-01  6.830485E+00
         3   5  2.126415E+00  1.841061E+00  7.815799E+00  4.456791E-03  5.224593E-01  6.368223E+00
         3   6  1.934399E+00  1.668370E+00  7.340722E+00 -2.941937E-02  7.167752E-02  6.120043E+00
         3   7  2.802316E+00  2.569861E+00  1.119899E+01  4.489336E-02  1.687655E+00  5.105328E+00
         3   8  2.331025E+00  2.126171E+00  1.005814E+01  1.212487E-02  9.132307E-01  4.692103E+00
         3   9  2.035614E+00  1.848300E+00  9.337743E+00 -2.017469E-02  1.415051E-01  4.479987E+00
         3  10 -3.893026E-01 -1.452325E+00  2.527016E+00  8.991819E-02  6.803341E-02  8.062212E+00
         3  11 -3.570657E-01 -1.327311E+00  2.501600E+00  1.001365E-02  2.022950E-02  7.473091E+00
         3  12 -3.350255E-01 -1.257122E+00  2.497103E+00 -6.788462E-02 -2.722506E-02  7.182147E+00
         3  13  3.877560E-01 -4.242264E-01  1.180239E+01  8.389828E-02  3.198084E-01  5.906527E+00
         3  14  3.174775E-01 -4.097741E-01  1.151979E+01  1.106693E-02  1.250413E-01  5.385030E+00
         3  15  3.170477E-01 -3.701254E-01  1.144489E+01 -5.975381E-02 -6.821052E-02  5.148768E+00
         3  16 -1.927051E-01 -8.754632E-01  1.750424E+01  7.628920E-02  6.041347E-01  3.306285E+00
         3  17 -3.152320E-01 -9.212979E-01  1.708175E+01  1.054861E-02  2.859763E-01  2.851855E+00
         3  18 -2.878587E-01 -8.619148E-01  1.705378E+01 -5.317802E-02 -2.949947E-02  2.669693E+00
         3  19 -4.348826E-02 -4.649150E-01  3.977711E+00  6.534236E-02 -4.221425E-02  9.856160E+00
         3  20  2.172409E-02 -3.163751E-01  4.032791E+00  6.404492E-02 -3.126772E-02  9.300178E+00
         3  21  5.081175E-02 -2.832069E-01  4.082913E+00  6.630590E-02 -1.996799E-02  9.113523E+00
         3  22  2.432139E-01 -1.541216E-01  1.648435E+01 -6.488885E-03 -1.204784E-01  6.825342E+00
         3  23  3.371296E-01  8.807667E-03  1.657456E+01  4.803231E-03 -5.773171E-02  6.355023E+00
         3  24  4.749572E-01  1.363773E-01  1.684659E+01  1.965482E-02  6.530459E-03  6.241105E+00
         3  25 -6.620068E-01 -1.251268E+00  2.548990E+01 -8.106810E-02 -9.914142E-02  3.349825E+00
         3  26 -4.891228E-01 -1.023686E+00  2.573258E+01 -5.719020E-02  3.898639E-02  2.964594E+00
         3  27 -1.922864E-01 -7.514524E-01  2.634392E+01 -2.975133E-02  1.797934E-01  2.922811E+00
         4   1  4.108089E-01  3.854575E-02  1.933159E+00  3.902087E-02 -1.449549E-02  7.314496E+00
         4   2  4.491609E-01  5.577789E-02  2.045608E+00  3.598569E-03 -1.207478E-01  7.599309E+00
         4   3  5.032747E-01  7.877928E-02  2.204917E+00 -3.227857E-02 -2.273454E-01  8.111156E+00
         4   4  1.934399E+00  1.668370E+00  7.340722E+00  2.941937E-02 -7.167752E-02  6.120043E+00
         4   5  2.126415E+00  1.841061E+00  7.815799E+00 -4.456791E-03 -5.224593E-01  6.368223E+00
         4   6  2.414245E+00  2.099546E+00  8.524528E+00 -3.879589E-02 -9.747598E-01  6.830485E+00
         4   7  2.035614E+00  1.848300E+00  9.337743E+00  2.017469E-02 -1.415051E-01  4.479987E+00
         4   8  2.331025E+00  2.126171E+00  1.005814E+01 -1.212487E-02 -9.132307E-01  4.692103E+00
         4   9  2.802316E+00  2.569861E+00  1.119899E+01 -4.489336E-02 -1.687655E+00  5.105328E+00
         4  10 -3.350255E-01 -1.257122E+00  2.497103E+00  6.788462E-02  2.722506E-02  7.182147E+00
         4  11 -3.570657E-01 -1.327311E+00  2.501600E+00 -1.001365E-02 -2.022950E-02  7.473091E+00
         4  12 -3.893026E-01 -1.452325E+00  2.527016E+00 -8.991819E-02 -6.803341E-02  8.062212E+00
         4  13  3.170477E-01 -3.701254E-01  1.144489E+01  5.975381E-02  6.821052E-02  5.148768E+00
         4  14  3.174775E-01 -4.097741E-01  1.151979E+01 -1.106693E-02 -1.250413E-01  5.385030E+00
         4  15  3.877560E-01 -4.242264E-01  1.180239E+01 -8.389828E-02 -3.198084E-01  5.906527E+00
         4  16 -2.878587E-01 -8.619148E-01  1.705378E+01  5.317802E-02  2.949947E-02  2.669693E+00
         4  17 -3.152320E-01 -9.212979E-01  1.708175E+01 -1.054861E-02 -2.859763E-01  2.851855E+00
         4  18 -1.927051E-01 -8.754632E-01  1.750424E+01 -7.628920E-02 -6.041347E-01  3.306285E+00
         4  19  5.081175E-02 -2.832069E-01  4.082913E+00 -6.630590E-02  1.996799E-02  9.113523E+00
         4  20  2.172409E-02 -3.163751E-01  4.032791E+00 -6.404492E-02  3.126772E-02  9.300178E+00
         4  21 -4.348826E-02 -4.649150E-01  3.977711E+00 -6.534236E-02  4.221425E-02  9.856160E+00
         4  22  4.749572E-01  1.363773E-01  1.684659E+01 -1.965482E-02 -6.530459E-03  6.241105E+00
         4  23  3.371296E-01  8.807667E-03  1.657456E+01 -4.803231E-03  5.773171E-02  6.355023E+00
         4  24  2.432139E-01 -1.541216E-01  1.648435E+01  6.488885E-03  1.204784E-01  6.825342E+00
         4  25 -1.922864E-01 -7.514524E-01  2.634392E+01  2.975133E-02 -1.797934E-01  2.922811E+00
         4  26 -4.891228E-01 -1.023686E+00  2.573258E+01  5.719020E-02 -3.898639E-02  2.964594E+00
         4  27 -6.620068E-01 -1.251268E+00  2.548990E+01  8.106810E-02  9.914142E-02  3.349825E+00
         5   1 -3.486945E-01 -3.847769E-02 -3.215816E+01 -1.294330E-01 -1.717548E-01  2.764849E+00
         5   2 -4.416079E-01 -1.640526E-01 -3.223648E+01 -7.195348E-02 -2.510163E-01  2.398185E+00
         5   3 -4.144821E-01 -9.418659E-02 -3.211029E+01 -1.092008E-02 -3.276060E-01  2.361202E+00
         5   4  1.841824E-01  2.041321E-01 -1.764494E+01 -4.467354E-02  5.940680E-02  6.771750E+00
         5   5  9.940524E-02  7.230788E-02 -1.773628E+01  7.416756E-04 -6.496706E-03  6.302928E+00
         5   6  1.070196E-01  1.083092E-01 -1.768752E+01  4.971403E-02 -7.087708E-02  6.145546E+00
         5   7  1.039794E-01  3.991485E-02 -3.872771E+00  3.733769E-02  4.861136E-02  1.048497E+01
         5   8  4.421803E-02 -8.128500E-02 -3.937737E+00  7.069114E-02  2.901328E-02  9.914612E+00
         5   9  4.920909E-02 -6.227553E-02 -3.927049E+00  1.076032E-01  9.789228E-03  9.637446E+00
         5  10 -6.345855E-02 -1.024239E-01 -4.002287E+01 -3.505235E-02 -1.722962E-01  2.031255E+00
         5  11 -1.324241E-01 -1.824020E-01 -4.011308E+01 -2.047344E-02 -1.950268E-01  1.657854E+00
         5  12 -1.179264E-01 -1.523769E-01 -4.003536E+01 -3.878880E-03 -2.150842E-01  1.589528E+00
         5  13  1.641124E-01  2.901679E-02 -2.217434E+01 -8.022428E-03  4.464459E-02  5.859055E+00
         5  14  1.047171E-01 -4.945195E-02 -2.226056E+01  1.910579E-03  1.052585E-02  5.405496E+00
         5  15  1.011391E-01 -4.552674E-02 -2.224326E+01  1.386224E-02 -2.206836E-02  5.238778E+00
         5  16  1.004492E-02 -1.469068E-01 -4.965435E+00  1.756239E-02  4.218473E-02  9.393363E+00
         5  17 -2.289557E-02 -2.069838E-01 -5.008257E+00  2.284511E-02  2.961596E-02  8.860275E+00
         5  18 -2.765800E-02 -2.122787E-01 -5.012009E+00  3.014794E-02  1.742242E-02  8.595780E+00
         5  19  1.265631E-01 -2.102096E-02 -4.786752E+01  3.031386E-02 -1.977933E-01  3.074231E+00
         5  20  9.549945E-02 -2.283033E-02 -4.795566E+01  1.814442E-02 -1.640971E-01  2.701420E+00
         5  21  1.113285E-01 -6.030514E-05 -4.791245E+01  6.451359E-03 -1.277273E-01  2.609077E+00
         5  22  1.334473E-01  3.556599E-02 -2.664807E+01  1.359547E-02  1.588329E-02  6.722765E+00
         5  23  1.133896E-01  4.301704E-02 -2.671522E+01  4.195241E-03  1.345903E-02  6.291795E+00
         5  24  1.125785E-01  4.744425E-02 -2.671543E+01 -4.725607E-03  1.255984E-02  6.123065E+00
         5  25 -9.767895E-03 -1.156702E-01 -5.966297E+00 -3.268245E-03  3.271728E-02  1.007798E+01
         5  26 -1.930161E-03 -8.206867E-02 -5.973036E+00 -9.909916E-03  2.710026E-02  9.589484E+00
         5  27 -2.486524E-03 -7.909785E-02 -5.977280E+00 -1.607056E-02  2.185864E-02  9.344985E+00
         6   1 -4.144821E-01 -9.418659E-02 -3.211029E+01  1.092008E-02  3.276060E-01  2.361202E+00
         6   2 -4.416079E-01 -1.640526E-01 -3.223648E+01  7.195348E-02  2.510163E-01  2.398185E+00
         6   3 -3.486945E-01 -3.847769E-02 -3.215816E+01  1.294330E-01  1.717548E-01  2.764849E+00
         6   4  1.070196E-01  1.083092E-01 -1.768752E+01 -4.971403E-02  7.087708E-02  6.145546E+00
         6   5  9.940524E-02  7.230788E-02 -1.773628E+01 -7.416756E-04  6.496706E-03  6.302928E+00
         6   6  1.841824E-01  2.041321E-01 -1.764494E+01  4.467354E-02 -5.940680E-02  6.771750E+00
         6   7  4.920909E-02 -6.227553E-02 -3.927049E+00 -1.076032E-01 -9.789228E-03  9.637446E+00
         6   8  4.421803E-02 -8.128500E-02 -3.937737E+00 -7.069114E-02 -2.901328E-02  9.914612E+00
         6   9  1.039794E-01  3.991485E-02 -3.872771E+00 -3.733769E-02 -4.861136E-02  1.048497E+01
         6  10 -1.179264E-01 -1.523769E-01 -4.003536E+01  3.878880E-03  2.150842E-01  1.589528E+00
         6  11 -1.324241E-01 -1.824020E-01 -4.011308E+01  2.047344E-02  1.950268E-01  1.657854E+00
         6  12 -6.345855E-02 -1.024239E-01 -4.002287E+01  3.505235E-02  1.722962E-01  2.031255E+00
         6  13  1.011391E-01 -4.552674E-02 -2.224326E+01 -1.386224E-02  2.206836E-02  5.238778E+00
         6  14  1.047171E-01 -4.945195E-02 -2.226056E+01 -1.910579E-03 -1.052585E-02  5.405496E+00
         6  15  1.641124E-01  2.901679E-02 -2.217434E+01  8.022428E-03 -4.464459E-02  5.859055E+00
         6  16 -2.765800E-02 -2.122787E-01 -5.012009E+00 -3.014794E-02 -1.742242E-02  8.595780E+00
         6  17 -2.289557E-02 -2.069838E-01 -5.008257E+00 -2.284511E-02 -2.961596E-02  8.860275E+00
         6  18  1.004492E-02 -1.469068E-01 -4.965435E+00 -1.756239E-02 -4.218473E-02  9.393363E+00
         6  19  1.113285E-01 -6.030514E-05 -4.791245E+01 -6.451359E-03  1.277273E-01  2.609077E+00
         6  20  9.549945E-02 -2.283033E-02 -4.795566E+01 -1.814442E-02  1.640971E-01  2.701420E+00
         6  21  1.265631E-01 -2.102096E-02 -4.786752E+01 -3.031386E-02  1.977933E-01  3.074231E+00
         6  22  1.125785E-01  4.744425E-02 -2.671543E+01  4.725607E-03 -1.255984E-02  6.123065E+00
         6  23  1.133896E-01  4.301704E-02 -2.671522E+01 -4.195241E-03 -1.345903E-02  6.291795E+00
         6  24  1.334473E-01  3.556599E-02 -2.664807E+01 -1.359547E-02 -1.588329E-02  6.722765E+00
         6  25 -2.486524E-03 -7.909785E-02 -5.977280E+00  1.607056E-02 -2.185864E-02  9.344985E+00
         6  26 -1.930161E-03 -8.206867E-02 -5.973036E+00  9.909916E-03 -2.710026E-02  9.589484E+00