
 displacements (vx,vy,vz) for set NALL and time  0.5000000E-06

         1  5.609024E-09  7.906694E-09  0.000000E+00
         2 -5.609024E-09  7.906694E-09  0.000000E+00
         3 -5.609024E-09 -7.906694E-09  0.000000E+00
         4  5.609024E-09 -7.906694E-09  0.000000E+00
         5  1.087822E-06  1.526070E-06  1.037548E-05
         6 -1.087822E-06  1.526070E-06  1.037548E-05
         7 -1.087822E-06 -1.526070E-06  1.037548E-05
         8  1.087822E-06 -1.526070E-06  1.037548E-05
         9  2.750350E-09  7.898969E-09  0.000000E+00
        10  5.583410E-25  7.905374E-09  0.000000E+00
        11 -2.750350E-09  7.898969E-09  0.000000E+00
        12 -5.641866E-09  3.786153E-09  0.000000E+00
        13 -5.669019E-09  0.000000E+00  0.000000E+00
        14 -5.641866E-09 -3.786153E-09  0.000000E+00
        15 -2.750350E-09 -7.898969E-09  0.000000E+00
        16  5.433500E-24 -7.905374E-09  0.000000E+00
        17  2.750350E-09 -7.898969E-09  0.000000E+00
        18  5.641866E-09 -3.786153E-09  0.000000E+00
        19  5.669019E-09  1.160461E-23  0.000000E+00
        20  5.641866E-09  3.786153E-09  0.000000E+00
        21  5.351898E-07  1.521545E-06  1.024678E-05
        22  4.612622E-21  1.527430E-06  1.020954E-05
        23 -5.351898E-07  1.521545E-06  1.024678E-05
        24 -1.110630E-06  7.339114E-07  1.013565E-05
        25 -1.128636E-06  1.660131E-21  1.007256E-05
        26 -1.110630E-06 -7.339114E-07  1.013565E-05
        27 -5.351898E-07 -1.521545E-06  1.024678E-05
        28 -8.016402E-21 -1.527430E-06  1.020954E-05
        29  5.351898E-07 -1.521545E-06  1.024678E-05
        30  1.110630E-06 -7.339114E-07  1.013565E-05
        31  1.128636E-06 -1.386839E-20  1.007256E-05
        32  1.110630E-06  7.339114E-07  1.013565E-05
        33 -6.008506E-09  8.486828E-09  2.014132E-08
        34 -7.252951E-09  1.022728E-08  4.311718E-08
        35 -9.533062E-09  1.346590E-08  7.223316E-08
        36 -1.315484E-08  1.854051E-08  1.115216E-07
        37 -1.865063E-08  2.634077E-08  1.667124E-07
        38 -2.676135E-08  3.774516E-08  2.453638E-07
        39 -3.870388E-08  5.468313E-08  3.589246E-07
        40 -5.608580E-08  7.902656E-08  5.230646E-07
        41 -8.149473E-08  1.150495E-07  7.618917E-07
        42 -1.181825E-07  1.667890E-07  1.107865E-06
        43 -1.719563E-07  2.431755E-07  1.610932E-06
        44 -2.491873E-07  3.518208E-07  2.341577E-06
        45 -3.643057E-07  5.132855E-07  3.407490E-06
        46 -5.224581E-07  7.439355E-07  4.949953E-06
        47 -7.657737E-07  1.097429E-06  7.178272E-06
        48  7.657737E-07  1.097429E-06  7.178272E-06
        49  5.224581E-07  7.439355E-07  4.949953E-06
        50  3.643057E-07  5.132855E-07  3.407490E-06
        51  2.491873E-07  3.518208E-07  2.341577E-06
        52  1.719563E-07  2.431755E-07  1.610932E-06
        53  1.181825E-07  1.667890E-07  1.107865E-06
        54  8.149473E-08  1.150495E-07  7.618917E-07
        55  5.608580E-08  7.902656E-08  5.230646E-07
        56  3.870388E-08  5.468313E-08  3.589246E-07
        57  2.676135E-08  3.774516E-08  2.453638E-07
        58  1.865063E-08  2.634077E-08  1.667124E-07
        59  1.315484E-08  1.854051E-08  1.115216E-07
        60  9.533062E-09  1.346590E-08  7.223316E-08
        61  7.252951E-09  1.022728E-08  4.311718E-08
        62  6.008506E-09  8.486828E-09  2.014132E-08
        63 -6.008506E-09 -8.486828E-09  2.014132E-08
        64 -7.252951E-09 -1.022728E-08  4.311718E-08
        65 -9.533062E-09 -1.346590E-08  7.223316E-08
        66 -1.315484E-08 -1.854051E-08  1.115216E-07
        67 -1.865063E-08 -2.634077E-08  1.667124E-07
        68 -2.676135E-08 -3.774516E-08  2.453638E-07
        69 -3.870388E-08 -5.468313E-08  3.589246E-07
        70 -5.608580E-08 -7.902656E-08  5.230646E-07
        71 -8.149473E-08 -1.150495E-07  7.618917E-07
        72 -1.181825E-07 -1.667890E-07  1.107865E-06
        73 -1.719563E-07 -2.431755E-07  1.610932E-06
        74 -2.491873E-07 -3.518208E-07  2.341577E-06
        75 -3.643057E-07 -5.132855E-07  3.407490E-06
        76 -5.224581E-07 -7.439355E-07  4.949953E-06
        77 -7.657737E-07 -1.097429E-06  7.178272E-06
        78  6.008506E-09 -8.486828E-09  2.014132E-08
        79  7.252951E-09 -1.022728E-08  4.311718E-08
        80  9.533062E-09 -1.346590E-08  7.223316E-08
        81  1.315484E-08 -1.854051E-08  1.115216E-07
        82  1.865063E-08 -2.634077E-08  1.667124E-07
        83  2.676135E-08 -3.774516E-08  2.453638E-07
        84  3.870388E-08 -5.468313E-08  3.589246E-07
        85  5.608580E-08 -7.902656E-08  5.230646E-07
        86  8.149473E-08 -1.150495E-07  7.618917E-07
        87  1.181825E-07 -1.667890E-07  1.107865E-06
        88  1.719563E-07 -2.431755E-07  1.610932E-06
        89  2.491873E-07 -3.518208E-07  2.341577E-06
        90  3.643057E-07 -5.132855E-07  3.407490E-06
        91  5.224581E-07 -7.439355E-07  4.949953E-06
        92  7.657737E-07 -1.097429E-06  7.178272E-06
        93  9.245138E-24  3.775607E-09  0.000000E+00
        94  2.779755E-09  3.529373E-24  0.000000E+00
        95  0.000000E+00  0.000000E+00  0.000000E+00
        96 -2.779755E-09  6.666508E-25  0.000000E+00
        97  1.482795E-24 -3.775607E-09  0.000000E+00
        98  2.003480E-21  7.283825E-07  9.961380E-06
        99  5.540742E-07 -1.194454E-20  9.933779E-06
       100 -3.244386E-21 -7.321572E-21  9.892593E-06
       101 -5.540742E-07 -4.882999E-21  9.933779E-06
       102 -3.775962E-21 -7.283825E-07  9.961380E-06
       103 -9.269716E-24  8.484401E-09  1.974724E-08
       104  3.556599E-09  1.021591E-08  4.249156E-08
       105  3.330329E-24  1.022485E-08  4.227400E-08
       106 -3.556599E-09  1.021591E-08  4.249156E-08
       107 -5.272486E-24  1.346237E-08  7.082027E-08
       108  6.450305E-09  1.852458E-08  1.099017E-07
       109 -1.599857E-23  1.854005E-08  1.093391E-07
       110 -6.450305E-09  1.852458E-08  1.099017E-07
       111 -6.931636E-23  2.633130E-08  1.634506E-07
       112  1.312296E-08  3.770202E-08  2.418030E-07
       113  1.530907E-23  3.773919E-08  2.405639E-07
       114 -1.312296E-08  3.770202E-08  2.418030E-07
       115  6.803270E-23  5.466457E-08  3.519080E-07
       116  2.750050E-08  7.898367E-08  5.154636E-07
       117  9.824092E-23  7.906249E-08  5.128181E-07
       118 -2.750050E-08  7.898367E-08  5.154636E-07
       119 -2.037854E-22  1.149904E-07  7.469857E-07
       120  5.794964E-08  1.666118E-07  1.091741E-06
       121 -8.700637E-22  1.668110E-07  1.086125E-06
       122 -5.794964E-08  1.666118E-07  1.091741E-06
       123 -4.209594E-22  2.430119E-07  1.579547E-06
       124  1.221733E-07  3.517247E-07  2.307523E-06
       125 -1.371612E-21  3.521859E-07  2.295408E-06
       126 -1.221733E-07  3.517247E-07  2.307523E-06
       127  1.842622E-21  5.131145E-07  3.341502E-06
       128  2.561832E-07  7.426680E-07  4.877859E-06
       129  3.471240E-22  7.428371E-07  4.853490E-06
       130 -2.561832E-07  7.426680E-07  4.877859E-06
       131 -1.444105E-21  1.093996E-06  7.042697E-06
       132 -6.069123E-09  5.427060E-24  1.933547E-08
       133 -7.296959E-09  4.898465E-09  4.182504E-08
       134 -7.330954E-09  9.301702E-24  4.139379E-08
       135 -7.296959E-09 -4.898465E-09  4.182504E-08
       136 -9.630859E-09  3.144580E-23  6.934473E-08
       137 -1.323096E-08  8.876599E-09  1.081874E-07
       138 -1.329661E-08  1.516098E-24  1.070564E-07
       139 -1.323096E-08 -8.876599E-09  1.081874E-07
       140 -1.883346E-08 -8.654418E-24  1.600415E-07
       141 -2.693003E-08  1.808481E-08  2.379998E-07
       142 -2.705198E-08 -4.321992E-23  2.355645E-07
       143 -2.693003E-08 -1.808481E-08  2.379998E-07
       144 -3.911384E-08 -6.491620E-23  3.445830E-07
       145 -5.640836E-08  3.781091E-08  5.074634E-07
       146 -5.671510E-08  2.894844E-22  5.020802E-07
       147 -5.640836E-08 -3.781091E-08  5.074634E-07
       148 -8.222227E-08  5.312987E-23  7.313699E-07
       149 -1.189775E-07  8.000265E-08  1.074466E-06
       150 -1.194873E-07  2.676359E-22  1.063734E-06
       151 -1.189775E-07 -8.000265E-08  1.074466E-06
       152 -1.739759E-07 -4.561211E-22  1.546783E-06
       153 -2.507740E-07  1.679850E-07  2.272271E-06
       154 -2.524870E-07 -1.044217E-21  2.247233E-06
       155 -2.507740E-07 -1.679850E-07  2.272271E-06
       156 -3.666325E-07 -3.822076E-22  3.270821E-06
       157 -5.267435E-07  3.584587E-07  4.800409E-06
       158 -5.293481E-07  5.087920E-22  4.757483E-06
       159 -5.267435E-07 -3.584587E-07  4.800409E-06
       160 -7.863868E-07  3.088394E-22  6.926287E-06
       161  4.121021E-24 -8.484401E-09  1.974724E-08
       162 -3.556599E-09 -1.021591E-08  4.249156E-08
       163 -1.173946E-23 -1.022485E-08  4.227400E-08
       164  3.556599E-09 -1.021591E-08  4.249156E-08
       165  8.410014E-24 -1.346237E-08  7.082027E-08
       166 -6.450305E-09 -1.852458E-08  1.099017E-07
       167  3.087011E-23 -1.854005E-08  1.093391E-07
       168  6.450305E-09 -1.852458E-08  1.099017E-07
       169  2.622874E-23 -2.633130E-08  1.634506E-07
       170 -1.312296E-08 -3.770202E-08  2.418030E-07
       171 -9.201611E-23 -3.773919E-08  2.405639E-07
       172  1.312296E-08 -3.770202E-08  2.418030E-07
       173  1.297164E-23 -5.466457E-08  3.519080E-07
       174 -2.750050E-08 -7.898367E-08  5.154636E-07
       175  3.331988E-22 -7.906249E-08  5.128181E-07
       176  2.750050E-08 -7.898367E-08  5.154636E-07
       177  1.689365E-22 -1.149904E-07  7.469857E-07
       178 -5.794964E-08 -1.666118E-07  1.091741E-06
       179 -3.515338E-23 -1.668110E-07  1.086125E-06
       180  5.794964E-08 -1.666118E-07  1.091741E-06
       181  2.170914E-22 -2.430119E-07  1.579547E-06
       182 -1.221733E-07 -3.517247E-07  2.307523E-06
       183  4.619600E-22 -3.521859E-07  2.295408E-06
       184  1.221733E-07 -3.517247E-07  2.307523E-06
       185  1.783624E-21 -5.131145E-07  3.341502E-06
       186 -2.561832E-07 -7.426680E-07  4.877859E-06
       187  1.507089E-21 -7.428371E-07  4.853490E-06
       188  2.561832E-07 -7.426680E-07  4.877859E-06
       189 -2.524538E-21 -1.093996E-06  7.042697E-06
       190  6.069123E-09  4.184051E-25  1.933547E-08
       191  7.296959E-09 -4.898465E-09  4.182504E-08
       192  7.330954E-09  1.750114E-23  4.139379E-08
       193  7.296959E-09  4.898465E-09  4.182504E-08
       194  9.630859E-09  3.579869E-23  6.934473E-08
       195  1.323096E-08 -8.876599E-09  1.081874E-07
       196  1.329661E-08  3.189152E-23  1.070564E-07
       197  1.323096E-08  8.876599E-09  1.081874E-07
       198  1.883346E-08 -3.721730E-23  1.600415E-07
       199  2.693003E-08 -1.808481E-08  2.379998E-07
       200  2.705198E-08 -3.744332E-23  2.355645E-07
       201  2.693003E-08  1.808481E-08  2.379998E-07
       202  3.911384E-08  9.527610E-23  3.445830E-07
       203  5.640836E-08 -3.781091E-08  5.074634E-07
       204  5.671510E-08  1.763958E-22  5.020802E-07
       205  5.640836E-08  3.781091E-08  5.074634E-07
       206  8.222227E-08 -2.065372E-22  7.313699E-07
       207  1.189775E-07 -8.000265E-08  1.074466E-06
       208  1.194873E-07  4.835337E-22  1.063734E-06
       209  1.189775E-07  8.000265E-08  1.074466E-06
       210  1.739759E-07  2.261310E-22  1.546783E-06
       211  2.507740E-07 -1.679850E-07  2.272271E-06
       212  2.524870E-07  2.354277E-22  2.247233E-06
       213  2.507740E-07  1.679850E-07  2.272271E-06
       214  3.666325E-07 -4.373924E-22  3.270821E-06
       215  5.267435E-07 -3.584587E-07  4.800409E-06
       216  5.293481E-07 -1.718587E-21  4.757483E-06
       217  5.267435E-07  3.584587E-07  4.800409E-06
       218  7.863868E-07  3.105392E-21  6.926287E-06
       219 -5.606534E-25  8.343905E-24  1.893959E-08
       220  1.306988E-24  4.884482E-09  4.098058E-08
       221  3.594995E-09  2.729400E-23  4.076368E-08
       222  1.270832E-23  2.279186E-23  4.054797E-08
       223 -3.594995E-09  1.512302E-23  4.076368E-08
       224  1.237642E-23 -4.884482E-09  4.098058E-08
       225 -1.793696E-23  2.077559E-23  6.792561E-08
       226 -2.006438E-24  8.853033E-09  1.060027E-07
       227  6.519430E-09  9.228738E-24  1.054325E-07
       228  1.088735E-25  2.021231E-24  1.048691E-07
       229 -6.519430E-09 -7.659066E-24  1.054325E-07
       230 -1.869236E-24 -8.853033E-09  1.060027E-07
       231  5.404762E-23 -5.925256E-25  1.567635E-07
       232  5.856863E-23  1.803550E-08  2.331953E-07
       233  1.326764E-08  1.405140E-23  2.319727E-07
       234  1.379635E-22 -2.723703E-23  2.307519E-07
       235 -1.326764E-08 -2.479631E-23  2.319727E-07
       236  1.020932E-22 -1.803550E-08  2.331953E-07
       237 -1.156567E-24  8.689084E-23  3.375343E-07
       238  2.600393E-22  3.772591E-08  4.972078E-07
       239  2.780189E-08  1.539434E-22  4.944913E-07
       240  3.238148E-22  1.727788E-22  4.918305E-07
       241 -2.780189E-08  2.604172E-22  4.944913E-07
       242  3.060976E-22 -3.772591E-08  4.972078E-07
       243  7.116356E-23  3.034828E-23  7.163708E-07
       244 -7.262408E-22  7.982375E-08  1.052741E-06
       245  5.861943E-08  5.055086E-22  1.047413E-06
       246 -4.227924E-22  4.065911E-22  1.041944E-06
       247 -5.861943E-08  2.514787E-22  1.047413E-06
       248 -2.489631E-22 -7.982375E-08  1.052741E-06
       249 -5.498103E-22  4.817422E-23  1.515244E-06
       250 -1.357279E-22  1.676223E-07  2.225972E-06
       251  1.236987E-07  3.159448E-22  2.213382E-06
       252  6.829285E-23  4.032315E-22  2.201095E-06
       253 -1.236987E-07  7.146523E-23  2.213382E-06
       254  7.198448E-23 -1.676223E-07  2.225972E-06
       255  1.187010E-21 -1.419341E-22  3.204190E-06
       256 -1.742626E-21  3.572289E-07  4.703622E-06
       257  2.599135E-07 -1.659172E-22  4.683421E-06
       258 -1.783446E-21  5.556234E-22  4.659082E-06
       259 -2.599135E-07  9.510693E-22  4.683421E-06
       260 -3.606480E-22 -3.572289E-07  4.703622E-06
       261 -1.013552E-21  8.849798E-22  6.787481E-06

 stresses (elem, integ.pnt.,sxx,syy,szz,sxy,sxz,syz) for set EALL and time  0.5000000E-06

         1   1  6.325729E-05  1.308992E-04  8.231202E-03  1.903229E-06 -1.917155E-07  1.792817E-06
         1   2  1.570289E-04  1.359306E-04  8.166226E-03  2.351486E-06  8.678576E-07  1.562188E-06
         1   3  6.604282E-05  3.234207E-04  8.096129E-03  2.449666E-06 -4.683348E-07  1.423136E-06
         1   4  1.650802E-04  3.392328E-04  8.035703E-03  5.212902E-07  9.166136E-07  1.254241E-06
         1   5  6.963823E-05  1.494291E-04  9.596293E-03  2.244121E-06  1.855341E-06  3.395492E-06
         1   6  1.779508E-04  1.550625E-04  9.520505E-03  2.917536E-06 -2.851039E-07  3.166666E-06
         1   7  7.194579E-05  3.713245E-04  9.438671E-03  2.745632E-06  2.465679E-06  1.656775E-06
         1   8  1.863425E-04  3.895053E-04  9.368366E-03  6.315312E-07  3.980433E-07  1.414943E-06
         2   1  1.570289E-04  1.359306E-04  8.166226E-03 -2.351486E-06 -8.678576E-07  1.562188E-06
         2   2  6.325729E-05  1.308992E-04  8.231202E-03 -1.903229E-06  1.917155E-07  1.792817E-06
         2   3  1.650802E-04  3.392328E-04  8.035703E-03 -5.212902E-07 -9.166136E-07  1.254241E-06
         2   4  6.604282E-05  3.234207E-04  8.096129E-03 -2.449666E-06  4.683348E-07  1.423136E-06
         2   5  1.779508E-04  1.550625E-04  9.520505E-03 -2.917536E-06  2.851039E-07  3.166666E-06
         2   6  6.963823E-05  1.494291E-04  9.596293E-03 -2.244121E-06 -1.855341E-06  3.395492E-06
         2   7  1.863425E-04  3.895053E-04  9.368366E-03 -6.315312E-07 -3.980433E-07  1.414943E-06
         2   8  7.194579E-05  3.713245E-04  9.438671E-03 -2.745632E-06 -2.465679E-06  1.656775E-06
         3   1  6.604282E-05  3.234207E-04  8.096129E-03 -2.449666E-06 -4.683348E-07 -1.423136E-06
         3   2  1.650802E-04  3.392328E-04  8.035703E-03 -5.212902E-07  9.166136E-07 -1.254241E-06
         3   3  6.325729E-05  1.308992E-04  8.231202E-03 -1.903229E-06 -1.917155E-07 -1.792817E-06
         3   4  1.570289E-04  1.359306E-04  8.166226E-03 -2.351486E-06  8.678576E-07 -1.562188E-06
         3   5  7.194579E-05  3.713245E-04  9.438671E-03 -2.745632E-06  2.465679E-06 -1.656775E-06
         3   6  1.863425E-04  3.895053E-04  9.368366E-03 -6.315312E-07  3.980433E-07 -1.414943E-06
         3   7  6.963823E-05  1.494291E-04  9.596293E-03 -2.244121E-06  1.855341E-06 -3.395492E-06
         3   8  1.779508E-04  1.550625E-04  9.520505E-03 -2.917536E-06 -2.851039E-07 -3.166666E-06
         4   1  1.650802E-04  3.392328E-04  8.035703E-03  5.212902E-07 -9.166136E-07 -1.254241E-06
         4   2  6.604282E-05  3.234207E-04  8.096129E-03  2.449666E-06  4.683348E-07 -1.423136E-06
         4   3  1.570289E-04  1.359306E-04  8.166226E-03  2.351486E-06 -8.678576E-07 -1.562188E-06
         4   4  6.325729E-05  1.308992E-04  8.231202E-03  1.903229E-06  1.917155E-07 -1.792817E-06
         4   5  1.863425E-04  3.895053E-04  9.368366E-03  6.315312E-07 -3.980433E-07 -1.414943E-06
         4   6  7.194579E-05  3.713245E-04  9.438671E-03  2.745632E-06 -2.465679E-06 -1.656775E-06
         4   7  1.779508E-04  1.550625E-04  9.520505E-03  2.917536E-06  2.851039E-07 -3.166666E-06
         4   8  6.963823E-05  1.494291E-04  9.596293E-03  2.244121E-06 -1.855341E-06 -3.395492E-06
         5   1  9.414752E-05  1.889894E-04  1.169397E-02  2.632899E-06  1.414425E-06  8.654101E-06
         5   2  2.281180E-04  1.964862E-04  1.160182E-02  3.387308E-06  1.944440E-06  7.934462E-06
         5   3  9.875530E-05  4.642609E-04  1.150307E-02  3.407799E-06  1.639104E-06  4.703189E-06
         5   4  2.401473E-04  4.870619E-04  1.141718E-02  7.333369E-07  2.430012E-06  4.040537E-06
         5   5  1.159832E-04  2.537389E-04  1.659075E-02  4.284048E-06  4.741356E-06  1.207276E-05
         5   6  3.030761E-04  2.629417E-04  1.645938E-02  4.614336E-06 -5.853637E-08  1.163932E-05
         5   7  1.195797E-04  6.389498E-04  1.631755E-02  5.590315E-06  7.096413E-06  3.039374E-06
         5   8  3.181983E-04  6.704906E-04  1.619659E-02  1.150395E-06  6.659468E-07  2.382105E-06
         6   1  2.281180E-04  1.964862E-04  1.160182E-02 -3.387308E-06 -1.944440E-06  7.934462E-06
         6   2  9.414752E-05  1.889894E-04  1.169397E-02 -2.632899E-06 -1.414425E-06  8.654101E-06
         6   3  2.401473E-04  4.870619E-04  1.141718E-02 -7.333369E-07 -2.430012E-06  4.040537E-06
         6   4  9.875530E-05  4.642609E-04  1.150307E-02 -3.407799E-06 -1.639104E-06  4.703189E-06
         6   5  3.030761E-04  2.629417E-04  1.645938E-02 -4.614336E-06  5.853637E-08  1.163932E-05
         6   6  1.159832E-04  2.537389E-04  1.659075E-02 -4.284048E-06 -4.741356E-06  1.207276E-05
         6   7  3.181983E-04  6.704906E-04  1.619659E-02 -1.150395E-06 -6.659468E-07  2.382105E-06
         6   8  1.195797E-04  6.389498E-04  1.631755E-02 -5.590315E-06 -7.096413E-06  3.039374E-06
         7   1  9.875530E-05  4.642609E-04  1.150307E-02 -3.407799E-06  1.639104E-06 -4.703189E-06
         7   2  2.401473E-04  4.870619E-04  1.141718E-02 -7.333369E-07  2.430012E-06 -4.040537E-06
         7   3  9.414752E-05  1.889894E-04  1.169397E-02 -2.632899E-06  1.414425E-06 -8.654101E-06
         7   4  2.281180E-04  1.964862E-04  1.160182E-02 -3.387308E-06  1.944440E-06 -7.934462E-06
         7   5  1.195797E-04  6.389498E-04  1.631755E-02 -5.590315E-06  7.096413E-06 -3.039374E-06
         7   6  3.181983E-04  6.704906E-04  1.619659E-02 -1.150395E-06  6.659468E-07 -2.382105E-06
         7   7  1.159832E-04  2.537389E-04  1.659075E-02 -4.284048E-06  4.741356E-06 -1.207276E-05
         7   8  3.030761E-04  2.629417E-04  1.645938E-02 -4.614336E-06 -5.853637E-08 -1.163932E-05
         8   1  2.401473E-04  4.870619E-04  1.141718E-02  7.333369E-07 -2.430012E-06 -4.040537E-06
         8   2  9.875530E-05  4.642609E-04  1.150307E-02  3.407799E-06 -1.639104E-06 -4.703189E-06
         8   3  2.281180E-04  1.964862E-04  1.160182E-02  3.387308E-06 -1.944440E-06 -7.934462E-06
         8   4  9.414752E-05  1.889894E-04  1.169397E-02  2.632899E-06 -1.414425E-06 -8.654101E-06
         8   5  3.181983E-04  6.704906E-04  1.619659E-02  1.150395E-06 -6.659468E-07 -2.382105E-06
         8   6  1.195797E-04  6.389498E-04  1.631755E-02  5.590315E-06 -7.096413E-06 -3.039374E-06
         8   7  3.030761E-04  2.629417E-04  1.645938E-02  4.614336E-06  5.853637E-08 -1.163932E-05
         8   8  1.159832E-04  2.537389E-04  1.659075E-02  4.284048E-06 -4.741356E-06 -1.207276E-05
         9   1  1.805216E-04  3.602029E-04  2.201795E-02  4.577376E-06  4.005936E-06  2.001758E-05
         9   2  4.335242E-04  3.744817E-04  2.184450E-02  6.168864E-06  4.189243E-06  1.793572E-05
         9   3  1.903437E-04  8.792443E-04  2.165653E-02  6.056263E-06  4.220858E-06  1.063377E-05
         9   4  4.567901E-04  9.218456E-04  2.149388E-02  1.261191E-06  5.268992E-06  8.941208E-06
         9   5  2.337168E-04  5.151332E-04  3.331689E-02  7.988186E-06  9.389001E-06  2.226373E-05
         9   6  6.071061E-04  5.340695E-04  3.305339E-02  1.103910E-05  8.628837E-07  2.109409E-05
         9   7  2.393176E-04  1.274857E-03  3.276898E-02  8.698717E-06  1.197621E-05  1.572477E-05
         9   8  6.322536E-04  1.336398E-03  3.252474E-02  2.288448E-06  5.903606E-06  1.389647E-05
        10   1  4.335242E-04  3.744817E-04  2.184450E-02 -6.168864E-06 -4.189243E-06  1.793572E-05
        10   2  1.805216E-04  3.602029E-04  2.201795E-02 -4.577376E-06 -4.005936E-06  2.001758E-05
        10   3  4.567901E-04  9.218456E-04  2.149388E-02 -1.261191E-06 -5.268992E-06  8.941208E-06
        10   4  1.903437E-04  8.792443E-04  2.165653E-02 -6.056263E-06 -4.220858E-06  1.063377E-05
        10   5  6.071061E-04  5.340695E-04  3.305339E-02 -1.103910E-05 -8.628837E-07  2.109409E-05
        10   6  2.337168E-04  5.151332E-04  3.331689E-02 -7.988186E-06 -9.389001E-06  2.226373E-05
        10   7  6.322536E-04  1.336398E-03  3.252474E-02 -2.288448E-06 -5.903606E-06  1.389647E-05
        10   8  2.393176E-04  1.274857E-03  3.276898E-02 -8.698717E-06 -1.197621E-05  1.572477E-05
        11   1  1.903437E-04  8.792443E-04  2.165653E-02 -6.056263E-06  4.220858E-06 -1.063377E-05
        11   2  4.567901E-04  9.218456E-04  2.149388E-02 -1.261191E-06  5.268992E-06 -8.941208E-06
        11   3  1.805216E-04  3.602029E-04  2.201795E-02 -4.577376E-06  4.005936E-06 -2.001758E-05
        11   4  4.335242E-04  3.744817E-04  2.184450E-02 -6.168864E-06  4.189243E-06 -1.793572E-05
        11   5  2.393176E-04  1.274857E-03  3.276898E-02 -8.698717E-06  1.197621E-05 -1.572477E-05
        11   6  6.322536E-04  1.336398E-03  3.252474E-02 -2.288448E-06  5.903606E-06 -1.389647E-05
        11   7  2.337168E-04  5.151332E-04  3.331689E-02 -7.988186E-06  9.389001E-06 -2.226373E-05
        11   8  6.071061E-04  5.340695E-04  3.305339E-02 -1.103910E-05  8.628837E-07 -2.109409E-05
        12   1  4.567901E-04  9.218456E-04  2.149388E-02  1.261191E-06 -5.268992E-06 -8.941208E-06
        12   2  1.903437E-04  8.792443E-04  2.165653E-02  6.056263E-06 -4.220858E-06 -1.063377E-05
        12   3  4.335242E-04  3.744817E-04  2.184450E-02  6.168864E-06 -4.189243E-06 -1.793572E-05
        12   4  1.805216E-04  3.602029E-04  2.201795E-02  4.577376E-06 -4.005936E-06 -2.001758E-05
        12   5  6.322536E-04  1.336398E-03  3.252474E-02  2.288448E-06 -5.903606E-06 -1.389647E-05
        12   6  2.393176E-04  1.274857E-03  3.276898E-02  8.698717E-06 -1.197621E-05 -1.572477E-05
        12   7  6.071061E-04  5.340695E-04  3.305339E-02  1.103910E-05 -8.628837E-07 -2.109409E-05
        12   8  2.337168E-04  5.151332E-04  3.331689E-02  7.988186E-06 -9.389001E-06 -2.226373E-05
        13   1  3.704263E-04  7.333465E-04  4.525076E-02  9.775997E-06  8.905755E-06  4.552917E-05
        13   2  8.913600E-04  7.645755E-04  4.489596E-02  1.264387E-05  8.993292E-06  4.077275E-05
        13   3  3.901358E-04  1.804042E-03  4.451775E-02  1.329937E-05  1.064783E-05  2.406033E-05
        13   4  9.393028E-04  1.894136E-03  4.418585E-02  2.758185E-06  1.187126E-05  2.030092E-05
        13   5  4.805996E-04  1.049661E-03  6.959027E-02  2.015363E-05  2.194566E-05  6.327735E-05
        13   6  1.263441E-03  1.082832E-03  6.903378E-02  1.917921E-05 -2.222027E-06  6.380043E-05
        13   7  4.924586E-04  2.684298E-03  6.843879E-02  2.749477E-05  3.746626E-05  2.819939E-06
        13   8  1.333101E-03  2.818411E-03  6.793449E-02  5.400105E-06 -1.324287E-06  1.691049E-06
        14   1  8.913600E-04  7.645755E-04  4.489596E-02 -1.264387E-05 -8.993292E-06  4.077275E-05
        14   2  3.704263E-04  7.333465E-04  4.525076E-02 -9.775997E-06 -8.905755E-06  4.552917E-05
        14   3  9.393028E-04  1.894136E-03  4.418585E-02 -2.758185E-06 -1.187126E-05  2.030092E-05
        14   4  3.901358E-04  1.804042E-03  4.451775E-02 -1.329937E-05 -1.064783E-05  2.406033E-05
        14   5  1.263441E-03  1.082832E-03  6.903378E-02 -1.917921E-05  2.222027E-06  6.380043E-05
        14   6  4.805996E-04  1.049661E-03  6.959027E-02 -2.015363E-05 -2.194566E-05  6.327735E-05
        14   7  1.333101E-03  2.818411E-03  6.793449E-02 -5.400105E-06  1.324287E-06  1.691049E-06
        14   8  4.924586E-04  2.684298E-03  6.843879E-02 -2.749477E-05 -3.746626E-05  2.819939E-06
        15   1  3.901358E-04  1.804042E-03  4.451775E-02 -1.329937E-05  1.064783E-05 -2.406033E-05
        15   2  9.393028E-04  1.894136E-03  4.418585E-02 -2.758185E-06  1.187126E-05 -2.030092E-05
        15   3  3.704263E-04  7.333465E-04  4.525076E-02 -9.775997E-06  8.905755E-06 -4.552917E-05
        15   4  8.913600E-04  7.645755E-04  4.489596E-02 -1.264387E-05  8.993292E-06 -4.077275E-05
        15   5  4.924586E-04  2.684298E-03  6.843879E-02 -2.749477E-05  3.746626E-05 -2.819939E-06
        15   6  1.333101E-03  2.818411E-03  6.793449E-02 -5.400105E-06 -1.324287E-06 -1.691049E-06
        15   7  4.805996E-04  1.049661E-03  6.959027E-02 -2.015363E-05  2.194566E-05 -6.327735E-05
        15   8  1.263441E-03  1.082832E-03  6.903378E-02 -1.917921E-05 -2.222027E-06 -6.380043E-05
        16   1  9.393028E-04  1.894136E-03  4.418585E-02  2.758185E-06 -1.187126E-05 -2.030092E-05
        16   2  3.901358E-04  1.804042E-03  4.451775E-02  1.329937E-05 -1.064783E-05 -2.406033E-05
        16   3  8.913600E-04  7.645755E-04  4.489596E-02  1.264387E-05 -8.993292E-06 -4.077275E-05
        16   4  3.704263E-04  7.333465E-04  4.525076E-02  9.775997E-06 -8.905755E-06 -4.552917E-05
        16   5  1.333101E-03  2.818411E-03  6.793449E-02  5.400105E-06  1.324287E-06 -1.691049E-06
        16   6  4.924586E-04  2.684298E-03  6.843879E-02  2.749477E-05 -3.746626E-05 -2.819939E-06
        16   7  1.263441E-03  1.082832E-03  6.903378E-02  1.917921E-05  2.222027E-06 -6.380043E-05
        16   8  4.805996E-04  1.049661E-03  6.959027E-02  2.015363E-05 -2.194566E-05 -6.327735E-05
        17   1  7.797471E-04  1.563930E-03  9.504635E-02  1.649748E-05  2.404102E-05  9.296545E-05
        17   2  1.877802E-03  1.629850E-03  9.430517E-02  2.483960E-05  2.075326E-05  7.907791E-05
        17   3  8.286280E-04  3.804187E-03  9.347665E-02  2.352562E-05  1.862863E-05  4.807124E-05
        17   4  1.981070E-03  3.988349E-03  9.277322E-02  4.511476E-06  2.304971E-05  3.926994E-05
        17   5  1.053361E-03  2.326074E-03  1.466829E-01  3.809204E-05  2.187108E-05  7.070816E-05
        17   6  2.688352E-03  2.404846E-03  1.455057E-01  5.427016E-05  5.903616E-06  7.404923E-05
        17   7  1.070703E-03  5.580819E-03  1.442757E-01  3.118923E-05  3.157160E-05  1.138696E-04
        17   8  2.767460E-03  5.829290E-03  1.431756E-01  1.068518E-05  3.967930E-05  1.034747E-04
        18   1  1.877802E-03  1.629850E-03  9.430517E-02 -2.483960E-05 -2.075326E-05  7.907791E-05
        18   2  7.797471E-04  1.563930E-03  9.504635E-02 -1.649748E-05 -2.404102E-05  9.296545E-05
        18   3  1.981070E-03  3.988349E-03  9.277322E-02 -4.511476E-06 -2.304971E-05  3.926994E-05
        18   4  8.286280E-04  3.804187E-03  9.347665E-02 -2.352562E-05 -1.862863E-05  4.807124E-05
        18   5  2.688352E-03  2.404846E-03  1.455057E-01 -5.427016E-05 -5.903616E-06  7.404923E-05
        18   6  1.053361E-03  2.326074E-03  1.466829E-01 -3.809204E-05 -2.187108E-05  7.070816E-05
        18   7  2.767460E-03  5.829290E-03  1.431756E-01 -1.068518E-05 -3.967930E-05  1.034747E-04
        18   8  1.070703E-03  5.580819E-03  1.442757E-01 -3.118923E-05 -3.157160E-05  1.138696E-04
        19   1  8.286280E-04  3.804187E-03  9.347665E-02 -2.352562E-05  1.862863E-05 -4.807124E-05
        19   2  1.981070E-03  3.988349E-03  9.277322E-02 -4.511476E-06  2.304971E-05 -3.926994E-05
        19   3  7.797471E-04  1.563930E-03  9.504635E-02 -1.649748E-05  2.404102E-05 -9.296545E-05
        19   4  1.877802E-03  1.629850E-03  9.430517E-02 -2.483960E-05  2.075326E-05 -7.907791E-05
        19   5  1.070703E-03  5.580819E-03  1.442757E-01 -3.118923E-05  3.157160E-05 -1.138696E-04
        19   6  2.767460E-03  5.829290E-03  1.431756E-01 -1.068518E-05  3.967930E-05 -1.034747E-04
        19   7  1.053361E-03  2.326074E-03  1.466829E-01 -3.809204E-05  2.187108E-05 -7.070816E-05
        19   8  2.688352E-03  2.404846E-03  1.455057E-01 -5.427016E-05  5.903616E-06 -7.404923E-05
        20   1  1.981070E-03  3.988349E-03  9.277322E-02  4.511476E-06 -2.304971E-05 -3.926994E-05
        20   2  8.286280E-04  3.804187E-03  9.347665E-02  2.352562E-05 -1.862863E-05 -4.807124E-05
        20   3  1.877802E-03  1.629850E-03  9.430517E-02  2.483960E-05 -2.075326E-05 -7.907791E-05
        20   4  7.797471E-04  1.563930E-03  9.504635E-02  1.649748E-05 -2.404102E-05 -9.296545E-05
        20   5  2.767460E-03  5.829290E-03  1.431756E-01  1.068518E-05 -3.967930E-05 -1.034747E-04
        20   6  1.070703E-03  5.580819E-03  1.442757E-01  3.118923E-05 -3.157160E-05 -1.138696E-04
        20   7  2.688352E-03  2.404846E-03  1.455057E-01  5.427016E-05 -5.903616E-06 -7.404923E-05
        20   8  1.053361E-03  2.326074E-03  1.466829E-01  3.809204E-05 -2.187108E-05 -7.070816E-05
        21   1  1.583963E-03  3.180912E-03  2.004871E-01  4.134256E-05  6.701448E-05  2.292302E-04