
 displacements (vx,vy,vz) for set NALL and time  0.1000000E-02

         1  0.000000E+00  0.000000E+00  0.000000E+00
         2 -6.428533E-04  0.000000E+00  0.000000E+00
         3 -6.428533E-04 -6.428533E-04  0.000000E+00
         4 -5.337427E-13 -6.428533E-04  0.000000E+00
         5  6.302406E-12  9.021403E-12  1.180946E-02
         6 -6.428533E-04  9.281732E-12  1.180946E-02
         7 -6.428533E-04 -6.428533E-04  1.180946E-02
         8  6.047488E-12 -6.428533E-04  1.180946E-02
         9 -1.607133E-04  5.229219E-14  0.000000E+00
        10 -3.214267E-04  1.531710E-13  0.000000E+00
        11 -4.821400E-04  5.222121E-14  0.000000E+00
        12 -6.428533E-04 -1.607133E-04  0.000000E+00
        13 -6.428533E-04 -3.214267E-04  0.000000E+00
        14 -6.428533E-04 -4.821400E-04  0.000000E+00
        15 -4.821400E-04 -6.428533E-04  0.000000E+00
        16 -3.214267E-04 -6.428533E-04  0.000000E+00
        17 -1.607133E-04 -6.428533E-04  0.000000E+00
        18 -3.520276E-13 -4.821400E-04  0.000000E+00
        19 -1.189623E-13 -3.214267E-04  0.000000E+00
        20 -8.509157E-14 -1.607133E-04  0.000000E+00
        21 -1.607133E-04  1.361655E-11  1.180946E-02
        22 -3.214266E-04  2.339809E-11  1.180946E-02
        23 -4.821400E-04  1.374710E-11  1.180946E-02
        24 -6.428533E-04 -1.607133E-04  1.180946E-02
        25 -6.428533E-04 -3.214266E-04  1.180946E-02
        26 -6.428533E-04 -4.821400E-04  1.180946E-02
        27 -4.821400E-04 -6.428533E-04  1.180946E-02
        28 -3.214266E-04 -6.428533E-04  1.180946E-02
        29 -1.607133E-04 -6.428533E-04  1.180946E-02
        30  1.063843E-11 -4.821400E-04  1.180946E-02
        31  2.041615E-11 -3.214266E-04  1.180946E-02
        32  1.076514E-11 -1.607133E-04  1.180946E-02
        33 -6.428533E-04 -2.476161E-13  7.380910E-04
        34 -6.428533E-04 -1.362134E-13  1.476182E-03
        35 -6.428533E-04  1.252497E-12  2.214273E-03
        36 -6.428533E-04  2.759816E-12  2.952364E-03
        37 -6.428533E-04  2.307090E-12  3.690455E-03
        38 -6.428533E-04  2.404798E-12  4.428546E-03
        39 -6.428533E-04  6.580731E-12  5.166637E-03
        40 -6.428533E-04  1.227421E-11  5.904728E-03
        41 -6.428533E-04  7.951698E-12  6.642819E-03
        42 -6.428533E-04 -5.642698E-13  7.380910E-03
        43 -6.428533E-04  1.613779E-11  8.119001E-03
        44 -6.428533E-04  3.581542E-11  8.857092E-03
        45 -6.428533E-04  8.712346E-12  9.595183E-03
        46 -6.428533E-04  7.337506E-12  1.033327E-02
        47 -6.428533E-04  2.928177E-11  1.107137E-02
        48  2.666681E-11  2.902954E-11  1.107137E-02
        49  5.076951E-12  7.093491E-12  1.033327E-02
        50  6.790117E-12  8.479390E-12  9.595183E-03
        51  3.419422E-11  3.559626E-11  8.857092E-03
        52  1.477349E-11  1.593965E-11  8.119001E-03
        53 -1.710983E-12 -7.373440E-13  7.380910E-03
        54  6.994343E-12  7.801886E-12  6.642819E-03
        55  1.149015E-11  1.214415E-11  5.904728E-03
        56  5.958604E-12  6.467109E-12  5.166637E-03
        57  1.929059E-12  2.305823E-12  4.428546E-03
        58  1.958994E-12  2.223194E-12  3.690455E-03
        59  2.522752E-12  2.693585E-12  2.952364E-03
        60  1.111771E-12  1.207892E-12  2.214273E-03
        61 -2.010536E-13 -1.589779E-13  1.476182E-03
        62 -2.643082E-13 -2.539987E-13  7.380910E-04
        63 -6.428533E-04 -6.428533E-04  7.380910E-04
        64 -6.428533E-04 -6.428533E-04  1.476182E-03
        65 -6.428533E-04 -6.428533E-04  2.214273E-03
        66 -6.428533E-04 -6.428533E-04  2.952364E-03
        67 -6.428533E-04 -6.428533E-04  3.690455E-03
        68 -6.428533E-04 -6.428533E-04  4.428546E-03
        69 -6.428533E-04 -6.428533E-04  5.166637E-03
        70 -6.428533E-04 -6.428533E-04  5.904728E-03
        71 -6.428533E-04 -6.428533E-04  6.642819E-03
        72 -6.428533E-04 -6.428533E-04  7.380910E-03
        73 -6.428533E-04 -6.428533E-04  8.119001E-03
        74 -6.428533E-04 -6.428533E-04  8.857092E-03
        75 -6.428533E-04 -6.428533E-04  9.595183E-03
        76 -6.428533E-04 -6.428533E-04  1.033327E-02
        77 -6.428533E-04 -6.428533E-04  1.107137E-02
        78 -7.922339E-13 -6.428533E-04  7.380910E-04
        79 -7.129089E-13 -6.428533E-04  1.476182E-03
        80  6.229555E-13 -6.428533E-04  2.214273E-03
        81  2.057007E-12 -6.428533E-04  2.952364E-03
        82  1.511100E-12 -6.428533E-04  3.690455E-03
        83  1.497001E-12 -6.428533E-04  4.428546E-03
        84  5.545068E-12 -6.428533E-04  5.166637E-03
        85  1.109622E-11 -6.428533E-04  5.904728E-03
        86  6.616184E-12 -6.428533E-04  6.642819E-03
        87 -2.077770E-12 -6.428533E-04  7.380910E-03
        88  1.441815E-11 -6.428533E-04  8.119001E-03
        89  3.385518E-11 -6.428533E-04  8.857092E-03
        90  6.473238E-12 -6.428533E-04  9.595183E-03
        91  4.785690E-12 -6.428533E-04  1.033327E-02
        92  2.639541E-11 -6.428533E-04  1.107137E-02
        93 -3.214267E-04 -1.607133E-04  0.000000E+00
        94 -1.607133E-04 -3.214267E-04  0.000000E+00
        95 -3.214267E-04 -3.214267E-04  0.000000E+00
        96 -4.821400E-04 -3.214267E-04  0.000000E+00
        97 -3.214267E-04 -4.821400E-04  0.000000E+00
        98 -3.214266E-04 -1.607133E-04  1.180946E-02
        99 -1.607133E-04 -3.214266E-04  1.180946E-02
       100 -3.214266E-04 -3.214266E-04  1.180946E-02
       101 -4.821400E-04 -3.214266E-04  1.180946E-02
       102 -3.214266E-04 -4.821400E-04  1.180946E-02
       103 -3.214267E-04 -1.281326E-13  7.380910E-04
       104 -1.607133E-04 -1.085494E-13  1.476182E-03
       105 -3.214267E-04 -1.999765E-13  1.476182E-03
       106 -4.821400E-04 -9.719216E-14  1.476182E-03
       107 -3.214267E-04  1.088628E-12  2.214273E-03
       108 -1.607133E-04  2.787791E-12  2.952364E-03
       109 -3.214267E-04  3.054222E-12  2.952364E-03
       110 -4.821400E-04  2.820930E-12  2.952364E-03
       111 -3.214267E-04  2.736583E-12  3.690455E-03
       112 -1.607133E-04  2.377653E-12  4.428546E-03
       113 -3.214267E-04  2.043708E-12  4.428546E-03
       114 -4.821400E-04  2.427144E-12  4.428546E-03
       115 -3.214267E-04  5.448286E-12  5.166637E-03
       116 -1.607133E-04  1.249355E-11  5.904728E-03
       117 -3.214267E-04  1.353471E-11  5.904728E-03
       118 -4.821400E-04  1.255856E-11  5.904728E-03
       119 -3.214267E-04  9.886359E-12  6.642819E-03
       120 -1.607133E-04 -2.131836E-12  7.380910E-03
       121 -3.214267E-04 -4.698559E-12  7.380910E-03
       122 -4.821400E-04 -2.045310E-12  7.380910E-03
       123 -3.214266E-04  1.427948E-11  8.119001E-03
       124 -1.607133E-04  3.940718E-11  8.857092E-03
       125 -3.214266E-04  4.480450E-11  8.857092E-03
       126 -4.821400E-04  3.951683E-11  8.857092E-03
       127 -3.214266E-04  6.372856E-12  9.595183E-03
       128 -1.607133E-04  4.456860E-12  1.033327E-02
       129 -3.214266E-04 -3.801284E-13  1.033327E-02
       130 -4.821400E-04  4.578782E-12  1.033327E-02
       131 -3.214266E-04  3.566662E-11  1.107137E-02
       132 -6.428533E-04 -3.214267E-04  7.380910E-04
       133 -6.428533E-04 -1.607133E-04  1.476182E-03
       134 -6.428533E-04 -3.214267E-04  1.476182E-03
       135 -6.428533E-04 -4.821400E-04  1.476182E-03
       136 -6.428533E-04 -3.214267E-04  2.214273E-03
       137 -6.428533E-04 -1.607133E-04  2.952364E-03
       138 -6.428533E-04 -3.214267E-04  2.952364E-03
       139 -6.428533E-04 -4.821400E-04  2.952364E-03
       140 -6.428533E-04 -3.214267E-04  3.690455E-03
       141 -6.428533E-04 -1.607133E-04  4.428546E-03
       142 -6.428533E-04 -3.214267E-04  4.428546E-03
       143 -6.428533E-04 -4.821400E-04  4.428546E-03
       144 -6.428533E-04 -3.214267E-04  5.166637E-03
       145 -6.428533E-04 -1.607133E-04  5.904728E-03
       146 -6.428533E-04 -3.214267E-04  5.904728E-03
       147 -6.428533E-04 -4.821400E-04  5.904728E-03
       148 -6.428533E-04 -3.214267E-04  6.642819E-03
       149 -6.428533E-04 -1.607133E-04  7.380910E-03
       150 -6.428533E-04 -3.214266E-04  7.380910E-03
       151 -6.428533E-04 -4.821400E-04  7.380910E-03
       152 -6.428533E-04 -3.214266E-04  8.119001E-03
       153 -6.428533E-04 -1.607133E-04  8.857092E-03
       154 -6.428533E-04 -3.214266E-04  8.857092E-03
       155 -6.428533E-04 -4.821400E-04  8.857092E-03
       156 -6.428533E-04 -3.214266E-04  9.595183E-03
       157 -6.428533E-04 -1.607133E-04  1.033327E-02
       158 -6.428533E-04 -3.214266E-04  1.033327E-02
       159 -6.428533E-04 -4.821400E-04  1.033327E-02
       160 -6.428533E-04 -3.214266E-04  1.107137E-02
       161 -3.214267E-04 -6.428533E-04  7.380910E-04
       162 -4.821400E-04 -6.428533E-04  1.476182E-03
       163 -3.214267E-04 -6.428533E-04  1.476182E-03
       164 -1.607133E-04 -6.428533E-04  1.476182E-03
       165 -3.214267E-04 -6.428533E-04  2.214273E-03
       166 -4.821400E-04 -6.428533E-04  2.952364E-03
       167 -3.214267E-04 -6.428533E-04  2.952364E-03
       168 -1.607133E-04 -6.428533E-04  2.952364E-03
       169 -3.214267E-04 -6.428533E-04  3.690455E-03
       170 -4.821400E-04 -6.428533E-04  4.428546E-03
       171 -3.214267E-04 -6.428533E-04  4.428546E-03
       172 -1.607133E-04 -6.428533E-04  4.428546E-03
       173 -3.214267E-04 -6.428533E-04  5.166637E-03
       174 -4.821400E-04 -6.428533E-04  5.904728E-03
       175 -3.214267E-04 -6.428533E-04  5.904728E-03
       176 -1.607133E-04 -6.428533E-04  5.904728E-03
       177 -3.214267E-04 -6.428533E-04  6.642819E-03
       178 -4.821400E-04 -6.428533E-04  7.380910E-03
       179 -3.214267E-04 -6.428533E-04  7.380910E-03
       180 -1.607133E-04 -6.428533E-04  7.380910E-03
       181 -3.214266E-04 -6.428533E-04  8.119001E-03
       182 -4.821400E-04 -6.428533E-04  8.857092E-03
       183 -3.214266E-04 -6.428533E-04  8.857092E-03
       184 -1.607133E-04 -6.428533E-04  8.857092E-03
       185 -3.214266E-04 -6.428533E-04  9.595183E-03
       186 -4.821400E-04 -6.428533E-04  1.033327E-02
       187 -3.214266E-04 -6.428533E-04  1.033327E-02
       188 -1.607133E-04 -6.428533E-04  1.033327E-02
       189 -3.214266E-04 -6.428533E-04  1.107137E-02
       190 -4.109332E-13 -3.214267E-04  7.380910E-04
       191 -5.443135E-13 -4.821400E-04  1.476182E-03
       192 -5.147962E-13 -3.214267E-04  1.476182E-03
       193 -2.883515E-13 -1.607133E-04  1.476182E-03
       194  7.206399E-13 -3.214267E-04  2.214273E-03
       195  2.247552E-12 -4.821400E-04  2.952364E-03
       196  2.612666E-12 -3.214267E-04  2.952364E-03
       197  2.480391E-12 -1.607133E-04  2.952364E-03
       198  2.201751E-12 -3.214267E-04  3.690455E-03
       199  1.648659E-12 -4.821400E-04  4.428546E-03
       200  1.396870E-12 -3.214267E-04  4.428546E-03
       201  1.864709E-12 -1.607133E-04  4.428546E-03
       202  4.672636E-12 -3.214267E-04  5.166637E-03
       203  1.150963E-11 -4.821400E-04  5.904728E-03
       204  1.261596E-11 -3.214267E-04  5.904728E-03
       205  1.170657E-11 -1.607133E-04  5.904728E-03
       206  8.811175E-12 -3.214267E-04  6.642819E-03
       207 -3.428862E-12 -4.821400E-04  7.380910E-03
       208 -5.948872E-12 -3.214266E-04  7.380910E-03
       209 -3.245461E-12 -1.607133E-04  7.380910E-03
       210  1.282643E-11 -3.214266E-04  8.119001E-03
       211  3.768721E-11 -4.821400E-04  8.857092E-03
       212  4.311181E-11 -3.214266E-04  8.857092E-03
       213  3.785672E-11 -1.607133E-04  8.857092E-03
       214  4.399151E-12 -3.214266E-04  9.595183E-03
       215  2.157049E-12 -4.821400E-04  1.033327E-02
       216 -2.669263E-12 -3.214266E-04  1.033327E-02
       217  2.302833E-12 -1.607133E-04  1.033327E-02
       218  3.303900E-11 -3.214266E-04  1.107137E-02
       219 -3.214267E-04 -3.214267E-04  7.380910E-04
       220 -3.214267E-04 -1.607133E-04  1.476182E-03
       221 -1.607133E-04 -3.214267E-04  1.476182E-03
       222 -3.214267E-04 -3.214267E-04  1.476182E-03
       223 -4.821400E-04 -3.214267E-04  1.476182E-03
       224 -3.214267E-04 -4.821400E-04  1.476182E-03
       225 -3.214267E-04 -3.214267E-04  2.214273E-03
       226 -3.214267E-04 -1.607133E-04  2.952364E-03
       227 -1.607133E-04 -3.214267E-04  2.952364E-03
       228 -3.214267E-04 -3.214267E-04  2.952364E-03
       229 -4.821400E-04 -3.214267E-04  2.952364E-03
       230 -3.214267E-04 -4.821400E-04  2.952364E-03
       231 -3.214267E-04 -3.214267E-04  3.690455E-03
       232 -3.214267E-04 -1.607133E-04  4.428546E-03
       233 -1.607133E-04 -3.214267E-04  4.428546E-03
       234 -3.214267E-04 -3.214267E-04  4.428546E-03
       235 -4.821400E-04 -3.214267E-04  4.428546E-03
       236 -3.214267E-04 -4.821400E-04  4.428546E-03
       237 -3.214267E-04 -3.214267E-04  5.166637E-03
       238 -3.214267E-04 -1.607133E-04  5.904728E-03
       239 -1.607133E-04 -3.214267E-04  5.904728E-03
       240 -3.214267E-04 -3.214267E-04  5.904728E-03
       241 -4.821400E-04 -3.214267E-04  5.904728E-03
       242 -3.214267E-04 -4.821400E-04  5.904728E-03
       243 -3.214267E-04 -3.214267E-04  6.642819E-03
       244 -3.214267E-04 -1.607133E-04  7.380910E-03
       245 -1.607133E-04 -3.214266E-04  7.380910E-03
       246 -3.214267E-04 -3.214266E-04  7.380910E-03
       247 -4.821400E-04 -3.214266E-04  7.380910E-03
       248 -3.214267E-04 -4.821400E-04  7.380910E-03
       249 -3.214266E-04 -3.214266E-04  8.119001E-03
       250 -3.214266E-04 -1.607133E-04  8.857092E-03
       251 -1.607133E-04 -3.214266E-04  8.857092E-03
       252 -3.214266E-04 -3.214266E-04  8.857092E-03
       253 -4.821400E-04 -3.214266E-04  8.857092E-03
       254 -3.214266E-04 -4.821400E-04  8.857092E-03
       255 -3.214266E-04 -3.214266E-04  9.595183E-03
       256 -3.214266E-04 -1.607133E-04  1.033327E-02
       257 -1.607133E-04 -3.214266E-04  1.033327E-02
       258 -3.214266E-04 -3.214266E-04  1.033327E-02
       259 -4.821400E-04 -3.214266E-04  1.033327E-02
       260 -3.214266E-04 -4.821400E-04  1.033327E-02
       261 -3.214266E-04 -3.214266E-04  1.107137E-02

 internal state variables (elem, integ.pnt.,values) for set EALL and time  0.1000000E-02

         1   1  9.999953E-04 -4.999976E-04 -4.999976E-04  9.999953E-04  2.671430E-14  5.626133E-16  4.732502E-16
         1   2  9.999953E-04 -4.999976E-04 -4.999976E-04  9.999953E-04  6.562276E-14  1.999761E-13 -2.228132E-14
         1   3  9.999953E-04 -4.999976E-04 -4.999976E-04  9.999953E-04  6.563695E-14 -2.232423E-14  1.999065E-13
         1   4  9.999953E-04 -4.999976E-04 -4.999976E-04  9.999953E-04  2.351195E-14  1.685950E-13  1.685675E-13
         1   5  9.999953E-04 -4.999976E-04 -4.999976E-04  9.999953E-04  8.164569E-14 -1.164258E-13 -1.165039E-13
         1   6  9.999953E-04 -4.999976E-04 -4.999976E-04  9.999953E-04 -2.862932E-14  1.908057E-13 -1.526862E-13
         1   7  9.999953E-04 -4.999976E-04 -4.999976E-04  9.999953E-04 -2.864755E-14 -1.527241E-13  1.907910E-13
         1   8  9.999953E-04 -4.999976E-04 -4.999976E-04  9.999953E-04 -9.034069E-15  1.501970E-13  1.501584E-13
         2   1  9.999953E-04 -4.999976E-04 -4.999976E-04  9.999953E-04 -6.642543E-14 -1.987213E-13 -2.224561E-14
         2   2  9.999953E-04 -4.999976E-04 -4.999976E-04  9.999953E-04 -2.682664E-14 -1.750597E-16  1.236834E-15
         2   3  9.999953E-04 -4.999976E-04 -4.999976E-04  9.999953E-04 -2.445792E-14 -1.694516E-13  1.685298E-13
         2   4  9.999953E-04 -4.999976E-04 -4.999976E-04  9.999953E-04 -6.588333E-14  2.159609E-14  2.004087E-13
         2   5  9.999953E-04 -4.999976E-04 -4.999976E-04  9.999953E-04  2.785345E-14 -1.876393E-13 -1.528605E-13
         2   6  9.999953E-04 -4.999976E-04 -4.999976E-04  9.999953E-04 -8.195113E-14  1.182082E-13 -1.147384E-13
         2   7  9.999953E-04 -4.999976E-04 -4.999976E-04  9.999953E-04  8.745348E-15 -1.536357E-13  1.500253E-13
         2   8  9.999953E-04 -4.999976E-04 -4.999976E-04  9.999953E-04  2.882228E-14  1.512581E-13  1.927232E-13
         3   1  9.999953E-04 -4.999976E-04 -4.999976E-04  9.999953E-04 -6.638941E-14 -2.234687E-14 -1.988059E-13
         3   2  9.999953E-04 -4.999976E-04 -4.999976E-04  9.999953E-04 -2.440679E-14  1.685606E-13 -1.694559E-13
         3   3  9.999953E-04 -4.999976E-04 -4.999976E-04  9.999953E-04 -2.680825E-14  1.128441E-15 -7.893419E-17
         3   4  9.999953E-04 -4.999976E-04 -4.999976E-04  9.999953E-04 -6.585093E-14  2.005088E-13  2.173274E-14
         3   5  9.999953E-04 -4.999976E-04 -4.999976E-04  9.999953E-04  2.779250E-14 -1.529576E-13 -1.877126E-13
         3   6  9.999953E-04 -4.999976E-04 -4.999976E-04  9.999953E-04  8.664642E-15  1.500694E-13 -1.536688E-13
         3   7  9.999953E-04 -4.999976E-04 -4.999976E-04  9.999953E-04 -8.197618E-14 -1.148193E-13  1.183021E-13
         3   8  9.999953E-04 -4.999976E-04 -4.999976E-04  9.999953E-04  2.877697E-14  1.928135E-13  1.513646E-13
         4   1  9.999953E-04 -4.999976E-04 -4.999976E-04  9.999953E-04  2.528503E-14 -1.694170E-13 -1.694170E-13
         4   2  9.999953E-04 -4.999976E-04 -4.999976E-04  9.999953E-04  6.660640E-14  2.159663E-14 -1.993153E-13
         4   3  9.999953E-04 -4.999976E-04 -4.999976E-04  9.999953E-04  6.662384E-14 -1.992619E-13  2.167521E-14
         4   4  9.999953E-04 -4.999976E-04 -4.999976E-04  9.999953E-04  2.691215E-14 -8.277921E-16 -9.292707E-16
         4   5  9.999953E-04 -4.999976E-04 -4.999976E-04  9.999953E-04 -8.290537E-15 -1.535092E-13 -1.535349E-13
         4   6  9.999953E-04 -4.999976E-04 -4.999976E-04  9.999953E-04 -2.793040E-14  1.514795E-13 -1.896633E-13
         4   7  9.999953E-04 -4.999976E-04 -4.999976E-04  9.999953E-04 -2.796404E-14 -1.896666E-13  1.515282E-13
         4   8  9.999953E-04 -4.999976E-04 -4.999976E-04  9.999953E-04  8.228450E-14  1.165440E-13  1.164794E-13
         5   1  9.999953E-04 -4.999976E-04 -4.999976E-04  9.999953E-04 -1.695122E-13 -1.415701E-13 -1.414220E-13
         5   2  9.999953E-04 -4.999976E-04 -4.999976E-04  9.999953E-04 -1.586373E-13 -3.321528E-13 -1.281991E-13
         5   3  9.999953E-04 -4.999976E-04 -4.999976E-04  9.999953E-04 -1.586765E-13 -1.281119E-13 -3.319980E-13
         5   4  9.999953E-04 -4.999976E-04 -4.999976E-04  9.999953E-04 -6.356264E-14 -3.083416E-13 -3.083885E-13
         5   5  9.999953E-04 -4.999976E-04 -4.999976E-04  9.999953E-04 -2.004860E-13  3.671559E-13  3.673803E-13
         5   6  9.999953E-04 -4.999976E-04 -4.999976E-04  9.999953E-04  3.160694E-14 -2.595022E-13  4.598690E-13
         5   7  9.999953E-04 -4.999976E-04 -4.999976E-04  9.999953E-04  3.162234E-14  4.599783E-13 -2.593390E-13
         5   8  9.999953E-04 -4.999976E-04 -4.999976E-04  9.999953E-04  1.231775E-14 -1.975254E-13 -1.976020E-13
         6   1  9.999953E-04 -4.999976E-04 -4.999976E-04  9.999953E-04  1.587046E-13  3.362875E-13 -1.283583E-13
         6   2  9.999953E-04 -4.999976E-04 -4.999976E-04  9.999953E-04  1.696815E-13  1.436362E-13 -1.390008E-13
         6   3  9.999953E-04 -4.999976E-04 -4.999976E-04  9.999953E-04  6.316315E-14  3.041117E-13 -3.085506E-13
         6   4  9.999953E-04 -4.999976E-04 -4.999976E-04  9.999953E-04  1.583721E-13  1.260854E-13 -3.295764E-13
         6   5  9.999953E-04 -4.999976E-04 -4.999976E-04  9.999953E-04 -3.150306E-14  2.638422E-13  4.597958E-13
         6   6  9.999953E-04 -4.999976E-04 -4.999976E-04  9.999953E-04  2.004480E-13 -3.652706E-13  3.699407E-13
         6   7  9.999953E-04 -4.999976E-04 -4.999976E-04  9.999953E-04 -1.206619E-14  1.935483E-13 -1.977645E-13
         6   8  9.999953E-04 -4.999976E-04 -4.999976E-04  9.999953E-04 -3.150562E-14 -4.622511E-13 -2.570812E-13
         7   1  9.999953E-04 -4.999976E-04 -4.999976E-04  9.999953E-04  1.586556E-13 -1.282211E-13  3.364070E-13
         7   2  9.999953E-04 -4.999976E-04 -4.999976E-04  9.999953E-04  6.307508E-14 -3.085141E-13  3.040577E-13
         7   3  9.999953E-04 -4.999976E-04 -4.999976E-04  9.999953E-04  1.696589E-13 -1.389124E-13  1.435562E-13
         7   4  9.999953E-04 -4.999976E-04 -4.999976E-04  9.999953E-04  1.583102E-13 -3.297067E-13  1.259326E-13
         7   5  9.999953E-04 -4.999976E-04 -4.999976E-04  9.999953E-04 -3.146221E-14  4.599750E-13  2.639819E-13
         7   6  9.999953E-04 -4.999976E-04 -4.999976E-04  9.999953E-04 -1.200085E-14 -1.977047E-13  1.934896E-13
         7   7  9.999953E-04 -4.999976E-04 -4.999976E-04  9.999953E-04  2.004600E-13  3.700476E-13 -3.653925E-13
         7   8  9.999953E-04 -4.999976E-04 -4.999976E-04  9.999953E-04 -3.146964E-14 -2.572330E-13 -4.624184E-13
         8   1  9.999953E-04 -4.999976E-04 -4.999976E-04  9.999953E-04 -6.264893E-14  3.042921E-13  3.042279E-13
         8   2  9.999953E-04 -4.999976E-04 -4.999976E-04  9.999953E-04 -1.583385E-13  1.262134E-13  3.340119E-13
         8   3  9.999953E-04 -4.999976E-04 -4.999976E-04  9.999953E-04 -1.583640E-13  3.338639E-13  1.261076E-13
         8   4  9.999953E-04 -4.999976E-04 -4.999976E-04  9.999953E-04 -1.698147E-13  1.410379E-13  1.411927E-13
         8   5  9.999953E-04 -4.999976E-04 -4.999976E-04  9.999953E-04  1.169207E-14  1.937297E-13  1.936543E-13
         8   6  9.999953E-04 -4.999976E-04 -4.999976E-04  9.999953E-04  3.131964E-14 -4.622421E-13  2.617563E-13
         8   7  9.999953E-04 -4.999976E-04 -4.999976E-04  9.999953E-04  3.133935E-14  2.615987E-13 -4.623406E-13
         8   8  9.999953E-04 -4.999976E-04 -4.999976E-04  9.999953E-04 -2.004308E-13 -3.681405E-13 -3.679300E-13
         9   1  9.999953E-04 -4.999976E-04 -4.999976E-04  9.999953E-04  3.802069E-13  2.294514E-13  2.294238E-13
         9   2  9.999953E-04 -4.999976E-04 -4.999976E-04  9.999953E-04  3.284922E-13  6.063632E-13  1.909027E-13
         9   3  9.999953E-04 -4.999976E-04 -4.999976E-04  9.999953E-04  3.285072E-13  1.908610E-13  6.064284E-13
         9   4  9.999953E-04 -4.999976E-04 -4.999976E-04  9.999953E-04  1.347390E-13  5.749790E-13  5.748809E-13
         9   5  9.999953E-04 -4.999976E-04 -4.999976E-04  9.999953E-04  4.864801E-13 -6.039181E-13 -6.039349E-13
         9   6  9.999953E-04 -4.999976E-04 -4.999976E-04  9.999953E-04 -8.453924E-15  5.280733E-13 -7.279185E-13
         9   7  9.999953E-04 -4.999976E-04 -4.999976E-04  9.999953E-04 -8.476591E-15 -7.279060E-13  5.282836E-13
         9   8  9.999953E-04 -4.999976E-04 -4.999976E-04  9.999953E-04 -1.109249E-14  4.634891E-13  4.633017E-13
        10   1  9.999953E-04 -4.999976E-04 -4.999976E-04  9.999953E-04 -3.282387E-13 -6.029413E-13  1.906703E-13
        10   2  9.999953E-04 -4.999976E-04 -4.999976E-04  9.999953E-04 -3.801606E-13 -2.276012E-13  2.311687E-13
        10   3  9.999953E-04 -4.999976E-04 -4.999976E-04  9.999953E-04 -1.344854E-13 -5.786877E-13  5.747336E-13
        10   4  9.999953E-04 -4.999976E-04 -4.999976E-04  9.999953E-04 -3.284542E-13 -1.923783E-13  6.084690E-13
        10   5  9.999953E-04 -4.999976E-04 -4.999976E-04  9.999953E-04  8.663066E-15 -5.250667E-13 -7.280368E-13
        10   6  9.999953E-04 -4.999976E-04 -4.999976E-04  9.999953E-04 -4.863914E-13  6.053049E-13 -6.023181E-13
        10   7  9.999953E-04 -4.999976E-04 -4.999976E-04  9.999953E-04  1.114866E-14 -4.664271E-13  4.631900E-13
        10   8  9.999953E-04 -4.999976E-04 -4.999976E-04  9.999953E-04  8.403671E-15  7.264688E-13  5.299110E-13
        11   1  9.999953E-04 -4.999976E-04 -4.999976E-04  9.999953E-04 -3.282016E-13  1.905584E-13 -6.030229E-13
        11   2  9.999953E-04 -4.999976E-04 -4.999976E-04  9.999953E-04 -1.344160E-13  5.748316E-13 -5.787839E-13
        11   3  9.999953E-04 -4.999976E-04 -4.999976E-04  9.999953E-04 -3.801441E-13  2.310878E-13 -2.275138E-13
        11   4  9.999953E-04 -4.999976E-04 -4.999976E-04  9.999953E-04 -3.284056E-13  6.085477E-13 -1.922704E-13
        11   5  9.999953E-04 -4.999976E-04 -4.999976E-04  9.999953E-04  8.564887E-15 -7.281499E-13 -5.251279E-13
        11   6  9.999953E-04 -4.999976E-04 -4.999976E-04  9.999953E-04  1.093422E-14  4.633698E-13 -4.666132E-13
        11   7  9.999953E-04 -4.999976E-04 -4.999976E-04  9.999953E-04 -4.863842E-13 -6.024750E-13  6.054576E-13
        11   8  9.999953E-04 -4.999976E-04 -4.999976E-04  9.999953E-04  8.294004E-15  5.299630E-13  7.265645E-13
        12   1  9.999953E-04 -4.999976E-04 -4.999976E-04  9.999953E-04  1.341386E-13 -5.785542E-13 -5.786487E-13
        12   2  9.999953E-04 -4.999976E-04 -4.999976E-04  9.999953E-04  3.281383E-13 -1.920856E-13 -6.051088E-13
        12   3  9.999953E-04 -4.999976E-04 -4.999976E-04  9.999953E-04  3.281436E-13 -6.051734E-13 -1.920480E-13
        12   4  9.999953E-04 -4.999976E-04 -4.999976E-04  9.999953E-04  3.800902E-13 -2.292577E-13 -2.292824E-13
        12   5  9.999953E-04 -4.999976E-04 -4.999976E-04  9.999953E-04 -1.094488E-14 -4.663043E-13 -4.664961E-13
        12   6  9.999953E-04 -4.999976E-04 -4.999976E-04  9.999953E-04 -8.469544E-15  7.267028E-13 -5.267573E-13
        12   7  9.999953E-04 -4.999976E-04 -4.999976E-04  9.999953E-04 -8.481128E-15 -5.269604E-13  7.266767E-13
        12   8  9.999953E-04 -4.999976E-04 -4.999976E-04  9.999953E-04  4.863125E-13  6.038354E-13  6.038100E-13
        13   1  9.999953E-04 -4.999976E-04 -4.999976E-04  9.999953E-04 -9.466252E-13 -7.649838E-13 -7.645366E-13
        13   2  9.999953E-04 -4.999976E-04 -4.999976E-04  9.999953E-04 -7.815471E-13 -1.243563E-12 -9.133792E-13
        13   3  9.999953E-04 -4.999976E-04 -4.999976E-04  9.999953E-04 -7.815706E-13 -9.130853E-13 -1.242989E-12
        13   4  9.999953E-04 -4.999976E-04 -4.999976E-04  9.999953E-04 -3.278704E-13 -1.300769E-12 -1.300988E-12
        13   5  9.999953E-04 -4.999976E-04 -4.999976E-04  9.999953E-04 -8.056617E-13  1.892917E-12  1.893314E-12
        13   6  9.999953E-04 -4.999976E-04 -4.999976E-04  9.999953E-04  8.202721E-14 -9.150769E-13  2.491784E-12
        13   7  9.999953E-04 -4.999976E-04 -4.999976E-04  9.999953E-04  8.184682E-14  2.491901E-12 -9.147090E-13
        13   8  9.999953E-04 -4.999976E-04 -4.999976E-04  9.999953E-04  6.727986E-14 -8.990427E-13 -8.993006E-13
        14   1  9.999953E-04 -4.999976E-04 -4.999976E-04  9.999953E-04  7.813894E-13  1.246453E-12 -9.134721E-13
        14   2  9.999953E-04 -4.999976E-04 -4.999976E-04  9.999953E-04  9.465227E-13  7.663442E-13 -7.629057E-13
        14   3  9.999953E-04 -4.999976E-04 -4.999976E-04  9.999953E-04  3.279409E-13  1.297908E-12 -1.301103E-12
        14   4  9.999953E-04 -4.999976E-04 -4.999976E-04  9.999953E-04  7.816904E-13  9.116359E-13 -1.241442E-12
        14   5  9.999953E-04 -4.999976E-04 -4.999976E-04  9.999953E-04 -8.213577E-14  9.183491E-13  2.491658E-12
        14   6  9.999953E-04 -4.999976E-04 -4.999976E-04  9.999953E-04  8.057000E-13 -1.891342E-12  1.895119E-12
        14   7  9.999953E-04 -4.999976E-04 -4.999976E-04  9.999953E-04 -6.760044E-14  8.957974E-13 -8.994278E-13
        14   8  9.999953E-04 -4.999976E-04 -4.999976E-04  9.999953E-04 -8.200451E-14 -2.493535E-12 -9.129157E-13
        15   1  9.999953E-04 -4.999976E-04 -4.999976E-04  9.999953E-04  7.812918E-13 -9.130767E-13  1.246783E-12
        15   2  9.999953E-04 -4.999976E-04 -4.999976E-04  9.999953E-04  3.277519E-13 -1.300910E-12  1.297710E-12
        15   3  9.999953E-04 -4.999976E-04 -4.999976E-04  9.999953E-04  9.465146E-13 -7.626769E-13  7.661035E-13
        15   4  9.999953E-04 -4.999976E-04 -4.999976E-04  9.999953E-04  7.815904E-13 -1.241780E-12  9.112422E-13
        15   5  9.999953E-04 -4.999976E-04 -4.999976E-04  9.999953E-04 -8.196754E-14  2.491820E-12  9.184306E-13
        15   6  9.999953E-04 -4.999976E-04 -4.999976E-04  9.999953E-04 -6.702788E-14 -8.991898E-13  8.955485E-13
        15   7  9.999953E-04 -4.999976E-04 -4.999976E-04  9.999953E-04  8.055019E-13  1.895221E-12 -1.891429E-12
        15   8  9.999953E-04 -4.999976E-04 -4.999976E-04  9.999953E-04 -8.179858E-14 -9.129977E-13 -2.493669E-12
        16   1  9.999953E-04 -4.999976E-04 -4.999976E-04  9.999953E-04 -3.277800E-13  1.298062E-12  1.297834E-12
        16   2  9.999953E-04 -4.999976E-04 -4.999976E-04  9.999953E-04 -7.813969E-13  9.116463E-13  1.245276E-12
        16   3  9.999953E-04 -4.999976E-04 -4.999976E-04  9.999953E-04 -7.814179E-13  1.244715E-12  9.113504E-13
        16   4  9.999953E-04 -4.999976E-04 -4.999976E-04  9.999953E-04 -9.464115E-13  7.640848E-13  7.645263E-13
        16   5  9.999953E-04 -4.999976E-04 -4.999976E-04  9.999953E-04  6.728023E-14  8.959517E-13  8.956886E-13
        16   6  9.999953E-04 -4.999976E-04 -4.999976E-04  9.999953E-04  8.209412E-14 -2.493443E-12  9.166663E-13
        16   7  9.999953E-04 -4.999976E-04 -4.999976E-04  9.999953E-04  8.187460E-14  9.162944E-13 -2.493536E-12
        16   8  9.999953E-04 -4.999976E-04 -4.999976E-04  9.999953E-04 -8.055679E-13 -1.893629E-12 -1.893219E-12
        17   1  9.999953E-04 -4.999976E-04 -4.999976E-04  9.999953E-04  2.214359E-12  8.118907E-13  8.115505E-13
        17   2  9.999953E-04 -4.999976E-04 -4.999976E-04  9.999953E-04  1.784839E-12  2.163182E-12  1.096875E-12
        17   3  9.999953E-04 -4.999976E-04 -4.999976E-04  9.999953E-04  1.785273E-12  1.096549E-12  2.162545E-12
        17   4  9.999953E-04 -4.999976E-04 -4.999976E-04  9.999953E-04  7.625232E-13  2.415109E-12  2.415247E-12
        17   5  9.999953E-04 -4.999976E-04 -4.999976E-04  9.999953E-04  2.490958E-13 -4.669591E-12 -4.670888E-12
        17   6  9.999953E-04 -4.999976E-04 -4.999976E-04  9.999953E-04 -8.130079E-13  1.254430E-12 -6.594014E-12
        17   7  9.999953E-04 -4.999976E-04 -4.999976E-04  9.999953E-04 -8.124372E-13 -6.594489E-12  1.252617E-12
        17   8  9.999953E-04 -4.999976E-04 -4.999976E-04  9.999953E-04 -4.326145E-13  1.518826E-12  1.520219E-12
        18   1  9.999953E-04 -4.999976E-04 -4.999976E-04  9.999953E-04 -1.785127E-12 -2.159201E-12  1.096728E-12
        18   2  9.999953E-04 -4.999976E-04 -4.999976E-04  9.999953E-04 -2.214411E-12 -8.100838E-13  8.136737E-13
        18   3  9.999953E-04 -4.999976E-04 -4.999976E-04  9.999953E-04 -7.628021E-13 -2.418857E-12  2.415093E-12
        18   4  9.999953E-04 -4.999976E-04 -4.999976E-04  9.999953E-04 -1.785307E-12 -1.098478E-12  2.164623E-12
        18   5  9.999953E-04 -4.999976E-04 -4.999976E-04  9.999953E-04  8.125980E-13 -1.250016E-12 -6.594310E-12