
 displacements (vx,vy,vz) for set NALL and time  0.1000000E+01

         1  0.000000E+00  0.000000E+00  0.000000E+00
         2  0.000000E+00  0.000000E+00  0.000000E+00
         3  0.000000E+00  0.000000E+00  0.000000E+00
         4  0.000000E+00  0.000000E+00  0.000000E+00
         5 -1.025425E-02 -1.015416E-04  1.281379E-03
         6 -9.943766E-03 -2.089438E-04  3.762366E-03
         7 -9.943766E-03  2.089438E-04  3.762366E-03
         8 -1.025425E-02  1.015416E-04  1.281379E-03
         9  0.000000E+00  0.000000E+00  0.000000E+00
        10  0.000000E+00  0.000000E+00  0.000000E+00
        11  0.000000E+00  0.000000E+00  0.000000E+00
        12  0.000000E+00  0.000000E+00  0.000000E+00
        13  0.000000E+00  0.000000E+00  0.000000E+00
        14  0.000000E+00  0.000000E+00  0.000000E+00
        15  0.000000E+00  0.000000E+00  0.000000E+00
        16  0.000000E+00  0.000000E+00  0.000000E+00
        17  0.000000E+00  0.000000E+00  0.000000E+00
        18  0.000000E+00  0.000000E+00  0.000000E+00
        19  0.000000E+00  0.000000E+00  0.000000E+00
        20  0.000000E+00  0.000000E+00  0.000000E+00
        21 -1.022268E-02 -1.048919E-04  1.889911E-03
        22 -1.020280E-02 -1.552559E-04  2.521860E-03
        23 -1.006743E-02 -2.056065E-04  3.153818E-03
        24 -9.941336E-03 -1.062793E-04  3.764201E-03
        25 -9.928810E-03 -3.801826E-16  3.766275E-03
        26 -9.941336E-03  1.062793E-04  3.764201E-03
        27 -1.006743E-02  2.056065E-04  3.153818E-03
        28 -1.020280E-02  1.552559E-04  2.521860E-03
        29 -1.022268E-02  1.048919E-04  1.889911E-03
        30 -1.025183E-02  4.896374E-05  1.279528E-03
        31 -1.023932E-02 -1.957202E-15  1.277444E-03
        32 -1.025183E-02 -4.896374E-05  1.279528E-03
        33  1.556078E-04 -2.350037E-04  2.601419E-04
        34 -3.844241E-05 -1.678675E-04  5.154054E-04
        35 -1.973746E-04 -2.121052E-04  7.472997E-04
        36 -5.017825E-04 -2.020894E-04  9.839702E-04
        37 -8.502604E-04 -2.097895E-04  1.214810E-03
        38 -1.295623E-03 -2.065671E-04  1.447357E-03
        39 -1.808502E-03 -2.089069E-04  1.680724E-03
        40 -2.405418E-03 -2.080852E-04  1.913613E-03
        41 -3.076661E-03 -2.086234E-04  2.146601E-03
        42 -3.827293E-03 -2.085005E-04  2.379359E-03
        43 -4.655211E-03 -2.085933E-04  2.612034E-03
        44 -5.559063E-03 -2.087389E-04  2.844361E-03
        45 -6.543351E-03 -2.080209E-04  3.079054E-03
        46 -7.603270E-03 -2.095355E-04  3.312561E-03
        47 -8.746983E-03 -2.088828E-04  3.540443E-03
        48 -9.057489E-03 -1.016235E-04  1.192786E-03
        49 -7.913752E-03 -1.009467E-04  1.110169E-03
        50 -6.853861E-03 -1.024896E-04  1.033170E-03
        51 -5.869511E-03 -1.017088E-04  9.573887E-04
        52 -4.965752E-03 -1.019478E-04  8.791850E-04
        53 -4.137619E-03 -1.018254E-04  8.013882E-04
        54 -3.387276E-03 -1.019914E-04  7.235767E-04
        55 -2.715282E-03 -1.017787E-04  6.463595E-04
        56 -2.119482E-03 -1.020728E-04  5.683767E-04
        57 -1.603817E-03 -1.016266E-04  4.916702E-04
        58 -1.162076E-03 -1.020264E-04  4.125336E-04
        59 -8.021101E-04 -9.823814E-05  3.376994E-04
        60 -5.143239E-04 -1.048440E-04  2.551822E-04
        61 -2.968784E-04 -9.056858E-05  1.880804E-04
        62 -1.889820E-04 -1.095861E-04  8.567534E-05
        63  1.556078E-04  2.350037E-04  2.601419E-04
        64 -3.844241E-05  1.678675E-04  5.154054E-04
        65 -1.973746E-04  2.121052E-04  7.472997E-04
        66 -5.017825E-04  2.020894E-04  9.839702E-04
        67 -8.502604E-04  2.097895E-04  1.214810E-03
        68 -1.295623E-03  2.065671E-04  1.447357E-03
        69 -1.808502E-03  2.089069E-04  1.680724E-03
        70 -2.405418E-03  2.080852E-04  1.913613E-03
        71 -3.076661E-03  2.086234E-04  2.146601E-03
        72 -3.827293E-03  2.085005E-04  2.379359E-03
        73 -4.655211E-03  2.085933E-04  2.612034E-03
        74 -5.559063E-03  2.087389E-04  2.844361E-03
        75 -6.543351E-03  2.080209E-04  3.079054E-03
        76 -7.603270E-03  2.095355E-04  3.312561E-03
        77 -8.746983E-03  2.088828E-04  3.540443E-03
        78 -1.889820E-04  1.095861E-04  8.567534E-05
        79 -2.968784E-04  9.056858E-05  1.880804E-04
        80 -5.143239E-04  1.048440E-04  2.551822E-04
        81 -8.021101E-04  9.823814E-05  3.376994E-04
        82 -1.162076E-03  1.020264E-04  4.125336E-04
        83 -1.603817E-03  1.016266E-04  4.916702E-04
        84 -2.119482E-03  1.020728E-04  5.683767E-04
        85 -2.715282E-03  1.017787E-04  6.463595E-04
        86 -3.387276E-03  1.019914E-04  7.235767E-04
        87 -4.137619E-03  1.018254E-04  8.013882E-04
        88 -4.965752E-03  1.019478E-04  8.791850E-04
        89 -5.869511E-03  1.017088E-04  9.573887E-04
        90 -6.853861E-03  1.024896E-04  1.033170E-03
        91 -7.913752E-03  1.009467E-04  1.110169E-03
        92 -9.057489E-03  1.016235E-04  1.192786E-03
        93  0.000000E+00  0.000000E+00  0.000000E+00
        94  0.000000E+00  0.000000E+00  0.000000E+00
        95  0.000000E+00  0.000000E+00  0.000000E+00
        96  0.000000E+00  0.000000E+00  0.000000E+00
        97  0.000000E+00  0.000000E+00  0.000000E+00
        98 -1.016519E-02 -7.762737E-05  2.521865E-03
        99 -1.019496E-02 -1.564391E-15  1.886597E-03
       100 -1.016449E-02 -1.170342E-15  2.521868E-03
       101 -1.003971E-02 -7.750148E-16  3.157132E-03
       102 -1.016519E-02  7.762737E-05  2.521865E-03
       103 -1.174113E-04 -1.724502E-04  1.980172E-04
       104 -2.574687E-04 -8.228427E-05  2.655366E-04
       105 -2.339919E-04 -1.354508E-04  3.404449E-04
       106 -1.272660E-04 -1.818146E-04  4.297042E-04
       107 -4.557480E-04 -1.556921E-04  5.034281E-04
       108 -7.589975E-04 -1.034638E-04  4.977518E-04
       109 -7.286075E-04 -1.543243E-04  6.577944E-04
       110 -6.094216E-04 -2.011408E-04  8.205404E-04
       111 -1.098306E-03 -1.547776E-04  8.144017E-04
       112 -1.562789E-03 -1.039762E-04  7.302879E-04
       113 -1.535067E-03 -1.557074E-04  9.689405E-04
       114 -1.408583E-03 -2.057833E-04  1.208353E-03
       115 -2.054794E-03 -1.550971E-04  1.124653E-03
       116 -2.675212E-03 -1.043715E-04  9.630193E-04
       117 -2.648283E-03 -1.554541E-04  1.279768E-03
       118 -2.520322E-03 -2.060245E-04  1.596696E-03
       119 -3.321783E-03 -1.551931E-04  1.435152E-03
       120 -4.098229E-03 -1.042443E-04  1.196035E-03
       121 -4.071946E-03 -1.553207E-04  1.590322E-03
       122 -3.943055E-03 -2.062353E-04  1.984675E-03
       123 -4.899470E-03 -1.552362E-04  1.745620E-03
       124 -5.830828E-03 -1.041436E-04  1.428348E-03
       125 -5.805379E-03 -1.552704E-04  1.900855E-03
       126 -5.675607E-03 -2.063515E-04  2.373378E-03
       127 -6.787787E-03 -1.552449E-04  2.056118E-03
       128 -7.876647E-03 -1.037450E-04  1.663724E-03
       129 -7.852692E-03 -1.552575E-04  2.211361E-03
       130 -7.721405E-03 -2.067534E-04  2.759003E-03
       131 -8.984640E-03 -1.552478E-04  2.366615E-03
       132  1.749059E-04  4.419782E-17  2.943426E-04
       133 -3.700820E-05 -8.667738E-05  5.109809E-04
       134 -2.081653E-05  5.702226E-17  5.006505E-04
       135 -3.700820E-05  8.667738E-05  5.109809E-04
       136 -1.876944E-04  5.120695E-17  7.498313E-04
       137 -4.960295E-04 -1.027217E-04  9.812305E-04
       138 -4.800000E-04  2.350008E-17  9.797093E-04
       139 -4.960295E-04  1.027217E-04  9.812305E-04
       140 -8.363355E-04 -1.743533E-17  1.215813E-03
       141 -1.292505E-03 -1.053891E-04  1.447288E-03
       142 -1.278208E-03 -7.041893E-17  1.446671E-03
       143 -1.292505E-03  1.053891E-04  1.447288E-03
       144 -1.793963E-03 -1.307548E-16  1.680840E-03
       145 -2.402822E-03 -1.060730E-04  1.913380E-03
       146 -2.389246E-03 -1.931961E-16  1.913311E-03
       147 -2.402822E-03  1.060730E-04  1.913380E-03
       148 -3.061621E-03 -2.526327E-16  2.146691E-03
       149 -3.824963E-03 -1.063043E-04  2.379364E-03
       150 -3.811672E-03 -3.026008E-16  2.379281E-03
       151 -3.824963E-03  1.063043E-04  2.379364E-03
       152 -4.640061E-03 -3.288058E-16  2.612063E-03
       153 -5.556908E-03 -1.064248E-04  2.844187E-03
       154 -5.543661E-03 -3.413503E-16  2.844100E-03
       155 -5.556908E-03  1.064248E-04  2.844187E-03
       156 -6.528285E-03 -3.400058E-16  3.079321E-03
       157 -7.600901E-03 -1.067980E-04  3.312931E-03
       158 -7.587595E-03 -3.447763E-16  3.313184E-03
       159 -7.600901E-03  1.067980E-04  3.312931E-03
       160 -8.731604E-03 -3.519862E-16  3.539976E-03
       161 -1.174113E-04  1.724502E-04  1.980172E-04
       162 -1.272660E-04  1.818146E-04  4.297042E-04
       163 -2.339919E-04  1.354508E-04  3.404449E-04
       164 -2.574687E-04  8.228427E-05  2.655366E-04
       165 -4.557480E-04  1.556921E-04  5.034281E-04
       166 -6.094216E-04  2.011408E-04  8.205404E-04
       167 -7.286075E-04  1.543243E-04  6.577944E-04
       168 -7.589975E-04  1.034638E-04  4.977518E-04
       169 -1.098306E-03  1.547776E-04  8.144017E-04
       170 -1.408583E-03  2.057833E-04  1.208353E-03
       171 -1.535067E-03  1.557074E-04  9.689405E-04
       172 -1.562789E-03  1.039762E-04  7.302879E-04
       173 -2.054794E-03  1.550971E-04  1.124653E-03
       174 -2.520322E-03  2.060245E-04  1.596696E-03
       175 -2.648283E-03  1.554541E-04  1.279768E-03
       176 -2.675212E-03  1.043715E-04  9.630193E-04
       177 -3.321783E-03  1.551931E-04  1.435152E-03
       178 -3.943055E-03  2.062353E-04  1.984675E-03
       179 -4.071946E-03  1.553207E-04  1.590322E-03
       180 -4.098229E-03  1.042443E-04  1.196035E-03
       181 -4.899470E-03  1.552362E-04  1.745620E-03
       182 -5.675607E-03  2.063515E-04  2.373378E-03
       183 -5.805379E-03  1.552704E-04  1.900855E-03
       184 -5.830828E-03  1.041436E-04  1.428348E-03
       185 -6.787787E-03  1.552449E-04  2.056118E-03
       186 -7.721405E-03  2.067534E-04  2.759003E-03
       187 -7.852692E-03  1.552575E-04  2.211361E-03
       188 -7.876647E-03  1.037450E-04  1.663724E-03
       189 -8.984640E-03  1.552478E-04  2.366615E-03
       190 -1.699945E-04 -7.132695E-17  1.016917E-04
       191 -3.011071E-04  4.352531E-05  1.842599E-04
       192 -2.917182E-04 -1.808852E-16  1.802393E-04
       193 -3.011071E-04 -4.352531E-05  1.842599E-04
       194 -4.990786E-04 -3.133204E-16  2.570250E-04
       195 -8.006341E-04  4.685420E-05  3.370616E-04
       196 -7.886486E-04 -4.700389E-16  3.358795E-04
       197 -8.006341E-04 -4.685420E-05  3.370616E-04
       198 -1.145891E-03 -6.413462E-16  4.129908E-04
       199 -1.602264E-03  4.881636E-05  4.913533E-04
       200 -1.589623E-03 -8.296857E-16  4.912102E-04
       201 -1.602264E-03 -4.881636E-05  4.913533E-04
       202 -2.104158E-03 -1.015342E-15  5.684656E-04
       203 -2.713218E-03  4.881705E-05  6.463356E-04
       204 -2.700154E-03 -1.201947E-15  6.462241E-04
       205 -2.713218E-03 -4.881705E-05  6.463356E-04
       206 -3.372008E-03 -1.359129E-15  7.236131E-04
       207 -4.135443E-03  4.886912E-05  8.013454E-04
       208 -4.122313E-03 -1.500193E-15  8.013615E-04
       209 -4.135443E-03 -4.886912E-05  8.013454E-04
       210 -4.950534E-03 -1.626717E-15  8.791766E-04
       211 -5.867403E-03  4.879565E-05  9.575395E-04
       212 -5.854201E-03 -1.738183E-15  9.576097E-04
       213 -5.867403E-03 -4.879565E-05  9.575395E-04
       214 -6.838775E-03 -1.838658E-15  1.032914E-03
       215 -7.911399E-03  4.844397E-05  1.109796E-03
       216 -7.898110E-03 -1.896866E-15  1.109537E-03
       217 -7.911399E-03 -4.844397E-05  1.109796E-03
       218 -9.042100E-03 -1.944774E-15  1.193253E-03
       219 -8.265499E-05 -1.746381E-17  2.244327E-04
       220 -1.918721E-04 -6.781184E-05  3.354049E-04
       221 -2.350105E-04 -1.240370E-16  2.544022E-04
       222 -1.964457E-04 -6.488611E-17  3.275854E-04
       223 -9.938677E-05 -5.204170E-18  4.164076E-04
       224 -1.918721E-04  6.781184E-05  3.354049E-04
       225 -4.153954E-04 -1.343970E-16  5.055041E-04
       226 -6.917284E-04 -7.694923E-05  6.568203E-04
       227 -7.322098E-04 -3.485795E-16  4.960276E-04
       228 -6.902075E-04 -2.250516E-16  6.560380E-04
       229 -5.783114E-04 -1.013729E-16  8.176130E-04
       230 -6.917284E-04  7.694923E-05  6.568203E-04
       231 -1.058581E-03 -3.318557E-16  8.143191E-04
       232 -1.496382E-03 -7.787422E-05  9.691684E-04
       233 -1.535222E-03 -6.393383E-16  7.302110E-04
       234 -1.495901E-03 -4.495577E-16  9.692682E-04
       235 -1.379473E-03 -2.604397E-16  1.208126E-03
       236 -1.496382E-03  7.787422E-05  9.691684E-04
       237 -2.014970E-03 -5.731081E-16  1.124482E-03
       238 -2.609870E-03 -7.771662E-05  1.279848E-03
       239 -2.647112E-03 -9.478095E-16  9.630429E-04
       240 -2.608968E-03 -6.949871E-16  1.279961E-03
       241 -2.491678E-03 -4.445297E-16  1.596653E-03
       242 -2.609870E-03  7.771662E-05  1.279848E-03
       243 -3.282089E-03 -8.048744E-16  1.435097E-03
       244 -4.033387E-03 -7.766270E-05  1.590368E-03
       245 -4.069996E-03 -1.201496E-15  1.196072E-03
       246 -4.032524E-03 -9.003892E-16  1.590406E-03
       247 -3.914670E-03 -6.001915E-16  1.984664E-03
       248 -4.033387E-03  7.766270E-05  1.590368E-03
       249 -4.859736E-03 -9.729969E-16  1.745600E-03
       250 -5.766957E-03 -7.763456E-05  1.900865E-03
       251 -5.802636E-03 -1.385909E-15  1.428415E-03
       252 -5.766134E-03 -1.037473E-15  1.900879E-03
       253 -5.647367E-03 -6.894442E-16  2.373316E-03
       254 -5.766957E-03  7.763456E-05  1.900865E-03
       255 -6.748036E-03 -1.083118E-15  2.056113E-03
       256 -7.814235E-03 -7.762907E-05  2.211365E-03
       257 -7.848468E-03 -1.506363E-15  1.663689E-03
       258 -7.813555E-03 -1.115644E-15  2.211369E-03
       259 -7.693210E-03 -7.293970E-16  2.759040E-03
       260 -7.814235E-03  7.762907E-05  2.211365E-03
       261 -8.944434E-03 -1.142207E-15  2.366613E-03

 stresses (elem, integ.pnt.,sxx,syy,szz,sxy,sxz,syz) for set EALL and time  0.1000000E+01

         1   1 -3.686738E+01 -3.157926E+01 -1.596116E+01 -6.154285E-01 -1.815006E+01 -1.356259E+01
         1   2 -1.949627E+01 -4.994442E+00  2.656298E+01 -2.451730E+00 -9.823874E+00 -1.794154E+01
         1   3 -3.187140E+01 -2.833941E+01 -8.286910E+00  1.452774E+00 -1.513065E+01 -2.066077E+00
         1   4 -1.359914E+01 -3.162820E-01  3.667451E+01 -3.316407E-01 -5.887522E+00 -2.840709E+00
         1   5  7.936674E+00  8.367600E+00  5.520103E+00  2.282116E+00  6.954926E+00  7.070988E+00
         1   6  3.661950E+00  2.474571E+01  1.671151E+01 -4.498985E+00  6.180183E+00  9.448787E+00
         1   7  1.131003E+01  5.042853E+00 -1.954100E+00  3.134159E+00  6.092028E+00  2.717472E+00
         1   8  5.255313E+00  2.164567E+01  6.332709E+00 -3.453301E+00  6.481998E+00  3.352152E+00
         2   1 -4.808863E+01 -6.301803E+01 -2.666114E+01 -2.674967E+00 -2.573756E+00 -2.379660E+01
         2   2 -3.947800E+01 -4.476613E+01 -3.894580E+00 -1.058018E+00  2.384345E+01 -2.843092E+01
         2   3 -4.575907E+01 -5.904193E+01 -1.662245E+01 -4.392986E-01  1.114920E+00 -4.161734E+00
         2   4 -3.614108E+01 -3.924549E+01  8.188750E+00  1.229537E+00  2.660749E+01 -5.184041E+00
         2   5  2.033066E+01 -3.368543E-01 -1.620394E+01 -3.589699E+00 -6.190560E-01  9.062729E+00
         2   6  2.507046E+01  2.463954E+01  2.058437E+01  3.378756E+00 -1.250936E+01  1.239330E+01
         2   7  8.244495E+00 -8.145858E+00 -3.345231E+01 -3.118652E+00 -1.612305E-01  3.291077E+00
         2   8  1.309882E+01  1.894976E+01  2.461667E+00  4.043445E+00 -1.241949E+01  4.081767E+00
         3   1 -3.187140E+01 -2.833941E+01 -8.286910E+00 -1.452774E+00 -1.513065E+01  2.066077E+00
         3   2 -1.359914E+01 -3.162820E-01  3.667451E+01  3.316407E-01 -5.887522E+00  2.840709E+00
         3   3 -3.686738E+01 -3.157926E+01 -1.596116E+01  6.154285E-01 -1.815006E+01  1.356259E+01
         3   4 -1.949627E+01 -4.994442E+00  2.656298E+01  2.451730E+00 -9.823874E+00  1.794154E+01
         3   5  1.131003E+01  5.042853E+00 -1.954100E+00 -3.134159E+00  6.092028E+00 -2.717472E+00
         3   6  5.255313E+00  2.164567E+01  6.332709E+00  3.453301E+00  6.481998E+00 -3.352152E+00
         3   7  7.936674E+00  8.367600E+00  5.520103E+00 -2.282116E+00  6.954926E+00 -7.070988E+00
         3   8  3.661950E+00  2.474571E+01  1.671151E+01  4.498985E+00  6.180183E+00 -9.448787E+00
         4   1 -4.575907E+01 -5.904193E+01 -1.662245E+01  4.392986E-01  1.114920E+00  4.161734E+00
         4   2 -3.614108E+01 -3.924549E+01  8.188750E+00 -1.229537E+00  2.660749E+01  5.184041E+00
         4   3 -4.808863E+01 -6.301803E+01 -2.666114E+01  2.674967E+00 -2.573756E+00  2.379660E+01
         4   4 -3.947800E+01 -4.476613E+01 -3.894580E+00  1.058018E+00  2.384345E+01  2.843092E+01
         4   5  8.244495E+00 -8.145858E+00 -3.345231E+01  3.118652E+00 -1.612305E-01 -3.291077E+00
         4   6  1.309882E+01  1.894976E+01  2.461667E+00 -4.043445E+00 -1.241949E+01 -4.081767E+00
         4   7  2.033066E+01 -3.368543E-01 -1.620394E+01  3.589699E+00 -6.190560E-01 -9.062729E+00
         4   8  2.507046E+01  2.463954E+01  2.058437E+01 -3.378756E+00 -1.250936E+01 -1.239330E+01
         5   1 -6.971430E+00 -9.794690E+00 -1.126282E+01  4.974138E+00 -2.225129E+00 -2.853147E+00
         5   2 -7.672569E+00  9.262691E+00  1.810144E+01 -3.303637E+00 -3.799767E+00 -3.299541E+00
         5   3  3.171157E+00 -7.599403E+00 -4.603760E+00  3.466680E+00 -1.690571E+00 -1.256493E+00
         5   4  2.561777E+00  1.408403E+01  2.636977E+01 -4.628063E+00 -3.426174E+00 -1.783257E+00
         5   5 -2.514594E+00 -2.357697E+00 -4.166864E+00  3.411867E+00  4.096006E-01  9.173985E-01
         5   6 -3.917438E+00  1.572511E+01  1.764465E+01 -3.478283E+00  1.537944E+00  6.003177E-01
         5   7  3.476733E+00 -3.848184E+00 -3.916738E+00  3.479072E+00  2.069008E-01  3.255157E-01
         5   8  1.953038E+00  1.662741E+01  1.849389E+01 -3.398784E+00  1.405415E+00  2.950848E-01
         6   1 -2.672354E+00 -1.995157E+01 -1.804271E+01 -3.189049E+00  1.948810E-01 -3.335397E+00
         6   2 -9.355011E+00 -6.531750E+00  4.109618E-01  4.835862E+00  5.671865E+00 -5.043847E+00
         6   3 -8.339428E+00 -1.986168E+01 -1.563537E+01 -4.626675E+00  3.305293E-01 -1.973446E+00
         6   4 -1.386004E+01 -2.745521E+00  4.662490E+00  3.581268E+00  4.944367E+00 -2.738155E+00
         6   5  6.980169E+00 -1.251738E+01 -1.776158E+01 -3.714506E+00  4.472023E-01  1.440708E+00
         6   6  8.222291E+00  8.065395E+00  8.654227E+00  3.018211E+00 -2.721688E+00  2.213890E+00
         6   7 -1.259798E+00 -1.593417E+01 -2.274738E+01 -3.502161E+00  5.487494E-01  5.615811E-01
         6   8 -2.690003E-01  6.910915E+00  3.799805E+00  3.242850E+00 -1.834124E+00  7.652257E-01
         7   1  3.171157E+00 -7.599403E+00 -4.603760E+00 -3.466680E+00 -1.690571E+00  1.256493E+00
         7   2  2.561777E+00  1.408403E+01  2.636977E+01  4.628063E+00 -3.426174E+00  1.783257E+00
         7   3 -6.971430E+00 -9.794690E+00 -1.126282E+01 -4.974138E+00 -2.225129E+00  2.853147E+00
         7   4 -7.672569E+00  9.262691E+00  1.810144E+01  3.303637E+00 -3.799767E+00  3.299541E+00
         7   5  3.476733E+00 -3.848184E+00 -3.916738E+00 -3.479072E+00  2.069008E-01 -3.255157E-01
         7   6  1.953038E+00  1.662741E+01  1.849389E+01  3.398784E+00  1.405415E+00 -2.950848E-01
         7   7 -2.514594E+00 -2.357697E+00 -4.166864E+00 -3.411867E+00  4.096006E-01 -9.173985E-01
         7   8 -3.917438E+00  1.572511E+01  1.764465E+01  3.478283E+00  1.537944E+00 -6.003177E-01
         8   1 -8.339428E+00 -1.986168E+01 -1.563537E+01  4.626675E+00  3.305293E-01  1.973446E+00
         8   2 -1.386004E+01 -2.745521E+00  4.662490E+00 -3.581268E+00  4.944367E+00  2.738155E+00
         8   3 -2.672354E+00 -1.995157E+01 -1.804271E+01  3.189049E+00  1.948810E-01  3.335397E+00
         8   4 -9.355011E+00 -6.531750E+00  4.109618E-01 -4.835862E+00  5.671865E+00  5.043847E+00
         8   5 -1.259798E+00 -1.593417E+01 -2.274738E+01  3.502161E+00  5.487494E-01 -5.615811E-01
         8   6 -2.690003E-01  6.910915E+00  3.799805E+00 -3.242850E+00 -1.834124E+00 -7.652257E-01
         8   7  6.980169E+00 -1.251738E+01 -1.776158E+01  3.714506E+00  4.472023E-01 -1.440708E+00
         8   8  8.222291E+00  8.065395E+00  8.654227E+00 -3.018211E+00 -2.721688E+00 -2.213890E+00
         9   1 -3.492287E+00 -4.474575E+00 -7.098146E+00  2.935494E+00 -6.295662E-03 -3.909744E-01
         9   2 -2.322178E+00  1.576415E+01  1.927631E+01 -3.468117E+00 -1.006526E+00 -2.135339E-01
         9   3  3.332923E+00 -5.148744E+00 -4.685354E+00  3.275198E+00  2.214133E-01 -2.442414E-01
         9   4  4.461678E+00  1.755404E+01  2.231055E+01 -3.163932E+00 -8.867101E-01 -1.545080E-01
         9   5 -3.625793E+00 -3.856522E+00 -5.804755E+00  3.489830E+00 -1.447229E-01  1.628811E-01
         9   6 -4.023994E+00  1.486341E+01  1.797394E+01 -3.335558E+00  5.203244E-01  4.765624E-02
         9   7  2.937373E+00 -4.579405E+00 -4.265360E+00  3.457349E+00 -3.307906E-01  7.214735E-02
         9   8  2.638178E+00  1.674310E+01  2.053057E+01 -3.363448E+00  4.209965E-01  3.019270E-02
        10   1  4.106519E-01 -1.675047E+01 -1.908766E+01 -3.156322E+00 -4.419955E-01 -5.597280E-01
        10   2  1.427571E+00  2.409859E+00  5.160069E+00  3.489720E+00  1.653336E+00 -1.268657E+00
        10   3 -5.436575E+00 -1.852893E+01 -2.074977E+01 -3.023530E+00 -5.278965E-01 -2.043056E-01
        10   4 -4.319243E+00  3.237217E+00  4.874006E+00  3.586993E+00  9.946752E-01 -3.202893E-01
        10   5  4.335718E+00 -1.467681E+01 -1.815700E+01 -3.507897E+00  2.942721E-01  7.596584E-03
        10   6  4.555443E+00  4.786172E+00  6.663008E+00  3.210472E+00 -7.446677E-01  4.370638E-01
        10   7 -2.786244E+00 -1.689116E+01 -2.102272E+01 -3.437951E+00  3.706318E-01  2.017201E-02
        10   8 -2.750775E+00  4.891129E+00  4.082305E+00  3.285010E+00 -3.860434E-01  1.539049E-01
        11   1  3.332923E+00 -5.148744E+00 -4.685354E+00 -3.275198E+00  2.214133E-01  2.442414E-01
        11   2  4.461678E+00  1.755404E+01  2.231055E+01  3.163932E+00 -8.867101E-01  1.545080E-01
        11   3 -3.492287E+00 -4.474575E+00 -7.098146E+00 -2.935494E+00 -6.295662E-03  3.909744E-01
        11   4 -2.322178E+00  1.576415E+01  1.927631E+01  3.468117E+00 -1.006526E+00  2.135339E-01
        11   5  2.937373E+00 -4.579405E+00 -4.265360E+00 -3.457349E+00 -3.307906E-01 -7.214735E-02
        11   6  2.638178E+00  1.674310E+01  2.053057E+01  3.363448E+00  4.209965E-01 -3.019270E-02
        11   7 -3.625793E+00 -3.856522E+00 -5.804755E+00 -3.489830E+00 -1.447229E-01 -1.628811E-01
        11   8 -4.023994E+00  1.486341E+01  1.797394E+01  3.335558E+00  5.203244E-01 -4.765624E-02
        12   1 -5.436575E+00 -1.852893E+01 -2.074977E+01  3.023530E+00 -5.278965E-01  2.043056E-01
        12   2 -4.319243E+00  3.237217E+00  4.874006E+00 -3.586993E+00  9.946752E-01  3.202893E-01
        12   3  4.106519E-01 -1.675047E+01 -1.908766E+01  3.156322E+00 -4.419955E-01  5.597280E-01
        12   4  1.427571E+00  2.409859E+00  5.160069E+00 -3.489720E+00  1.653336E+00  1.268657E+00
        12   5 -2.786244E+00 -1.689116E+01 -2.102272E+01  3.437951E+00  3.706318E-01 -2.017201E-02
        12   6 -2.750775E+00  4.891129E+00  4.082305E+00 -3.285010E+00 -3.860434E-01 -1.539049E-01
        12   7  4.335718E+00 -1.467681E+01 -1.815700E+01  3.507897E+00  2.942721E-01 -7.596584E-03
        12   8  4.555443E+00  4.786172E+00  6.663008E+00 -3.210472E+00 -7.446677E-01 -4.370638E-01
        13   1 -3.110294E+00 -4.131499E+00 -6.401663E+00  3.420225E+00  1.135859E-01 -7.892512E-02
        13   2 -3.079454E+00  1.517273E+01  1.851465E+01 -3.454276E+00 -3.142674E-01  4.354280E-02
        13   3  3.914793E+00 -4.469652E+00 -4.307747E+00  3.361839E+00  2.302383E-01 -1.409411E-02
        13   4  3.824797E+00  1.722313E+01  2.112444E+01 -3.498366E+00 -2.195080E-01 -1.408248E-03
        13   5 -3.591682E+00 -4.073995E+00 -6.145751E+00  3.434356E+00 -9.932932E-02  1.696623E-02
        13   6 -3.721091E+00  1.494234E+01  1.820830E+01 -3.379543E+00  1.739925E-01 -5.656397E-02
        13   7  3.170162E+00 -4.645615E+00 -4.320454E+00  3.426234E+00 -1.460002E-01  3.901890E-03
        13   8  3.096785E+00  1.695391E+01  2.092557E+01 -3.386966E+00  1.139889E-01 -2.073595E-02
        14   1  2.961776E+00 -1.521642E+01 -1.837459E+01 -3.325898E+00 -1.526153E-01  3.838354E-02
        14   2  2.553385E+00  3.574590E+00  6.020784E+00  3.597998E+00  3.800895E-01 -1.875785E-01
        14   3 -3.747587E+00 -1.714592E+01 -2.102368E+01 -3.447975E+00 -1.858349E-01 -3.226492E-02
        14   4 -3.958484E+00  4.351973E+00  4.447806E+00  3.490216E+00  1.483119E-01 -1.475580E-01
        14   5  3.774719E+00 -1.495767E+01 -1.828727E+01 -3.449972E+00  1.338336E-01 -4.064664E-03
        14   6  3.792224E+00  4.274538E+00  6.278496E+00  3.321473E+00 -2.305139E-01  1.142183E-01
        14   7 -3.119970E+00 -1.697709E+01 -2.090038E+01 -3.416338E+00  1.394000E-01 -4.675164E-03
        14   8 -3.185489E+00  4.699242E+00  4.241487E+00  3.355805E+00 -8.537158E-02  3.625710E-02
        15   1  3.914793E+00 -4.469652E+00 -4.307747E+00 -3.361839E+00  2.302383E-01  1.409411E-02
        15   2  3.824797E+00  1.722313E+01  2.112444E+01  3.498366E+00 -2.195080E-01  1.408248E-03
        15   3 -3.110294E+00 -4.131499E+00 -6.401663E+00 -3.420225E+00  1.135859E-01  7.892512E-02
        15   4 -3.079454E+00  1.517273E+01  1.851465E+01  3.454276E+00 -3.142674E-01 -4.354280E-02
        15   5  3.170162E+00 -4.645615E+00 -4.320454E+00 -3.426234E+00 -1.460002E-01 -3.901890E-03
        15   6  3.096785E+00  1.695391E+01  2.092557E+01  3.386966E+00  1.139889E-01  2.073595E-02
        15   7 -3.591682E+00 -4.073995E+00 -6.145751E+00 -3.434356E+00 -9.932932E-02 -1.696623E-02
        15   8 -3.721091E+00  1.494234E+01  1.820830E+01  3.379543E+00  1.739925E-01  5.656397E-02
        16   1 -3.747587E+00 -1.714592E+01 -2.102368E+01  3.447975E+00 -1.858349E-01  3.226492E-02
        16   2 -3.958484E+00  4.351973E+00  4.447806E+00 -3.490216E+00  1.483119E-01  1.475580E-01
        16   3  2.961776E+00 -1.521642E+01 -1.837459E+01  3.325898E+00 -1.526153E-01 -3.838354E-02
        16   4  2.553385E+00  3.574590E+00  6.020784E+00 -3.597998E+00  3.800895E-01  1.875785E-01
        16   5 -3.119970E+00 -1.697709E+01 -2.090038E+01  3.416338E+00  1.394000E-01  4.675164E-03
        16   6 -3.185489E+00  4.699242E+00  4.241487E+00 -3.355805E+00 -8.537158E-02 -3.625710E-02
        16   7  3.774719E+00 -1.495767E+01 -1.828727E+01  3.449972E+00  1.338336E-01  4.064664E-03
        16   8  3.792224E+00  4.274538E+00  6.278496E+00 -3.321473E+00 -2.305139E-01 -1.142183E-01
        17   1 -3.251813E+00 -3.991245E+00 -6.255211E+00  3.360461E+00  5.011721E-02 -1.013618E-02
        17   2 -3.146754E+00  1.525992E+01  1.850502E+01 -3.417959E+00 -9.677084E-02  2.786543E-02
        17   3  3.546880E+00 -4.547252E+00 -4.359223E+00  3.386632E+00  7.561576E-02 -1.541004E-02
        17   4  3.622283E+00  1.720312E+01  2.107624E+01 -3.394794E+00 -5.509327E-02  1.128159E-02
        17   5 -3.590726E+00 -4.100529E+00 -6.194987E+00  3.411685E+00  4.897221E-02  1.695647E-02
        17   6 -3.579291E+00  1.502588E+01  1.830988E+01 -3.390333E+00 -2.651641E-02 -1.024210E-02
        17   7  3.189876E+00 -4.642577E+00 -4.329105E+00  3.401408E+00  4.101633E-02  1.136541E-02
        17   8  3.232918E+00  1.703121E+01  2.098466E+01 -3.400139E+00 -5.580595E-02 -2.779748E-03
        18   1  3.091641E+00 -1.522739E+01 -1.845423E+01 -3.370168E+00 -7.636215E-02  5.161899E-03
        18   2  3.181909E+00  3.921341E+00  6.180744E+00  3.440410E+00  1.397227E-01 -7.946928E-02
        18   3 -3.637429E+00 -1.721826E+01 -2.110335E+01 -3.373148E+00 -7.981782E-02  1.344296E-02
        18   4 -3.514357E+00  4.492140E+00  4.410011E+00  3.434423E+00  4.258843E-02 -4.998659E-03
        18   5  3.582430E+00 -1.504719E+01 -1.833966E+01 -3.412106E+00 -4.045829E-02 -1.530240E-02
        18   6  3.637206E+00  4.147009E+00  6.238010E+00  3.376339E+00  1.164503E-02  2.037071E-02
        18   7 -3.246688E+00 -1.704498E+01 -2.096814E+01 -3.409281E+00 -4.541375E-02 -7.612444E-03
        18   8 -3.211188E+00  4.645716E+00  4.299333E+00  3.379635E+00  6.656083E-02  2.576466E-03
        19   1  3.546880E+00 -4.547252E+00 -4.359223E+00 -3.386632E+00  7.561576E-02  1.541004E-02
        19   2  3.622283E+00  1.720312E+01  2.107624E+01  3.394794E+00 -5.509327E-02 -1.128159E-02
        19   3 -3.251813E+00 -3.991245E+00 -6.255211E+00 -3.360461E+00  5.011721E-02  1.013618E-02
        19   4 -3.146754E+00  1.525992E+01  1.850502E+01  3.417959E+00 -9.677084E-02 -2.786543E-02
        19   5  3.189876E+00 -4.642577E+00 -4.329105E+00 -3.401408E+00  4.101633E-02 -1.136541E-02
        19   6  3.232918E+00  1.703121E+01  2.098466E+01  3.400139E+00 -5.580595E-02  2.779748E-03
        19   7 -3.590726E+00 -4.100529E+00 -6.194987E+00 -3.411685E+00  4.897221E-02 -1.695647E-02
        19   8 -3.579291E+00  1.502588E+01  1.830988E+01  3.390333E+00 -2.651641E-02  1.024210E-02
        20   1 -3.637429E+00 -1.721826E+01 -2.110335E+01  3.373148E+00 -7.981782E-02 -1.344296E-02
        20   2 -3.514357E+00  4.492140E+00  4.410011E+00 -3.434423E+00  4.258843E-02  4.998659E-03
        20   3  3.091641E+00 -1.522739E+01 -1.845423E+01  3.370168E+00 -7.636215E-02 -5.161899E-03
        20   4  3.181909E+00  3.921341E+00  6.180744E+00 -3.440410E+00  1.397227E-01  7.946928E-02
        20   5 -3.246688E+00 -1.704498E+01 -2.096814E+01  3.409281E+00 -4.541375E-02  7.612444E-03
        20   6 -3.211188E+00  4.645716E+00  4.299333E+00 -3.379635E+00  6.656083E-02 -2.576466E-03
        20   7  3.582430E+00 -1.504719E+01 -1.833966E+01  3.412106E+00 -4.045829E-02  1.530240E-02
        20   8  3.637206E+00  4.147009E+00  6.238010E+00 -3.376339E+00  1.164503E-02 -2.037071E-02
        21   1 -3.165742E+00 -3.986021E+00 -6.202058E+00  3.401729E+00 -6.258846E-02 -2.074743E-02