
 displacements (vx,vy,vz) for set NALL and time  0.1000000E+01

         1  0.000000E+00  0.000000E+00  0.000000E+00
         2  0.000000E+00  0.000000E+00  0.000000E+00
         3  0.000000E+00  0.000000E+00  0.000000E+00
         4  0.000000E+00  0.000000E+00  0.000000E+00
         5 -1.878356E-04  4.388232E-01  2.641287E-02
         6  1.878356E-04  4.388232E-01  2.641287E-02
         7 -2.195274E-04  4.354621E-01 -5.510382E-02
         8  2.195274E-04  4.354621E-01 -5.510382E-02
         9  0.000000E+00  0.000000E+00  0.000000E+00
        10  0.000000E+00  0.000000E+00  0.000000E+00
        11  0.000000E+00  0.000000E+00  0.000000E+00
        12  0.000000E+00  0.000000E+00  0.000000E+00
        13  0.000000E+00  0.000000E+00  0.000000E+00
        14  0.000000E+00  0.000000E+00  0.000000E+00
        15  0.000000E+00  0.000000E+00  0.000000E+00
        16  0.000000E+00  0.000000E+00  0.000000E+00
        17  0.000000E+00  0.000000E+00  0.000000E+00
        18  0.000000E+00  0.000000E+00  0.000000E+00
        19  0.000000E+00  0.000000E+00  0.000000E+00
        20  0.000000E+00  0.000000E+00  0.000000E+00
        21 -8.646389E-05  4.383842E-01  2.638028E-02
        22  2.309060E-15  4.383333E-01  2.629483E-02
        23  8.646389E-05  4.383842E-01  2.638028E-02
        24 -1.019652E-05  4.376352E-01  5.898645E-03
        25 -4.078805E-06  4.365837E-01 -1.433342E-02
        26 -1.125212E-05  4.359791E-01 -3.459418E-02
        27 -9.965112E-05  4.350405E-01 -5.505994E-02
        28  2.229665E-15  4.350166E-01 -5.497635E-02
        29  9.965112E-05  4.350405E-01 -5.505994E-02
        30  1.125212E-05  4.359791E-01 -3.459418E-02
        31  4.078805E-06  4.365837E-01 -1.433342E-02
        32  1.019652E-05  4.376352E-01  5.898645E-03
        33 -1.534521E-03  2.716006E-03  4.595688E-03
        34 -1.124507E-03  9.679943E-03  9.161529E-03
        35 -1.267152E-03  2.175343E-02  1.335441E-02
        36 -1.118967E-03  3.766599E-02  1.711210E-02
        37 -1.063760E-03  5.768938E-02  2.037220E-02
        38 -9.530896E-04  8.108382E-02  2.319492E-02
        39 -8.678986E-04  1.077762E-01  2.552661E-02
        40 -7.680902E-04  1.372974E-01  2.738865E-02
        41 -6.757412E-04  1.693927E-01  2.876254E-02
        42 -5.825425E-04  2.037126E-01  2.967661E-02
        43 -4.770755E-04  2.399274E-01  3.013517E-02
        44 -3.840470E-04  2.777735E-01  3.016276E-02
        45 -2.991754E-04  3.167459E-01  2.975542E-02
        46 -2.492652E-04  3.567975E-01  2.895814E-02
        47 -1.723943E-05  3.973970E-01  2.782271E-02
        48  1.723943E-05  3.973970E-01  2.782271E-02
        49  2.492652E-04  3.567975E-01  2.895814E-02
        50  2.991754E-04  3.167459E-01  2.975542E-02
        51  3.840470E-04  2.777735E-01  3.016276E-02
        52  4.770755E-04  2.399274E-01  3.013517E-02
        53  5.825425E-04  2.037126E-01  2.967661E-02
        54  6.757412E-04  1.693927E-01  2.876254E-02
        55  7.680902E-04  1.372974E-01  2.738865E-02
        56  8.678986E-04  1.077762E-01  2.552661E-02
        57  9.530896E-04  8.108382E-02  2.319492E-02
        58  1.063760E-03  5.768938E-02  2.037220E-02
        59  1.118967E-03  3.766599E-02  1.711210E-02
        60  1.267152E-03  2.175343E-02  1.335441E-02
        61  1.124507E-03  9.679943E-03  9.161529E-03
        62  1.534521E-03  2.716006E-03  4.595688E-03
        63  1.546993E-03  2.655362E-03 -4.647127E-03
        64  1.121331E-03  9.485762E-03 -9.349806E-03
        65  1.269342E-03  2.136991E-02 -1.385640E-02
        66  1.119357E-03  3.702379E-02 -1.813769E-02
        67  1.063730E-03  5.677160E-02 -2.220140E-02
        68  9.512709E-04  7.985346E-02 -2.611503E-02
        69  8.663700E-04  1.062309E-01 -2.986022E-02
        70  7.652013E-04  1.354345E-01 -3.344939E-02
        71  6.725927E-04  1.672289E-01 -3.686252E-02
        72  5.782795E-04  2.012663E-01 -4.010965E-02
        73  4.733982E-04  2.372310E-01 -4.316457E-02
        74  3.776963E-04  2.748583E-01 -4.603098E-02
        75  2.948303E-04  3.136627E-01 -4.864289E-02
        76  2.377162E-04  3.535807E-01 -5.103830E-02
        77  2.065809E-05  3.941156E-01 -5.315983E-02
        78 -1.546993E-03  2.655362E-03 -4.647127E-03
        79 -1.121331E-03  9.485762E-03 -9.349806E-03
        80 -1.269342E-03  2.136991E-02 -1.385640E-02
        81 -1.119357E-03  3.702379E-02 -1.813769E-02
        82 -1.063730E-03  5.677160E-02 -2.220140E-02
        83 -9.512709E-04  7.985346E-02 -2.611503E-02
        84 -8.663700E-04  1.062309E-01 -2.986022E-02
        85 -7.652013E-04  1.354345E-01 -3.344939E-02
        86 -6.725927E-04  1.672289E-01 -3.686252E-02
        87 -5.782795E-04  2.012663E-01 -4.010965E-02
        88 -4.733982E-04  2.372310E-01 -4.316457E-02
        89 -3.776963E-04  2.748583E-01 -4.603098E-02
        90 -2.948303E-04  3.136627E-01 -4.864289E-02
        91 -2.377162E-04  3.535807E-01 -5.103830E-02
        92 -2.065809E-05  3.941156E-01 -5.315983E-02
        93  0.000000E+00  0.000000E+00  0.000000E+00
        94  0.000000E+00  0.000000E+00  0.000000E+00
        95  0.000000E+00  0.000000E+00  0.000000E+00
        96  0.000000E+00  0.000000E+00  0.000000E+00
        97  0.000000E+00  0.000000E+00  0.000000E+00
        98  2.324894E-15  4.373972E-01  5.931874E-03
        99  2.387648E-06  4.365586E-01 -1.433755E-02
       100  2.328189E-15  4.364828E-01 -1.433621E-02
       101 -2.387648E-06  4.365586E-01 -1.433755E-02
       102  2.253178E-15  4.357460E-01 -3.460904E-02
       103  1.408207E-17  3.376248E-03  4.457882E-03
       104  5.550518E-04  1.022631E-02  9.209979E-03
       105  5.501124E-17  1.034724E-02  9.273366E-03
       106 -5.550518E-04  1.022631E-02  9.209979E-03
       107  1.144306E-16  2.235923E-02  1.334060E-02
       108  5.589049E-04  3.810174E-02  1.712811E-02
       109  1.918093E-16  3.827006E-02  1.712730E-02
       110 -5.589049E-04  3.810174E-02  1.712811E-02
       111  2.820177E-16  5.821000E-02  2.036690E-02
       112  4.756451E-04  8.145555E-02  2.319940E-02
       113  4.169746E-16  8.157756E-02  2.319392E-02
       114 -4.756451E-04  8.145555E-02  2.319940E-02
       115  5.402528E-16  1.082072E-01  2.552269E-02
       116  3.837827E-04  1.375862E-01  2.739261E-02
       117  7.263087E-16  1.376839E-01  2.738480E-02
       118 -3.837827E-04  1.375862E-01  2.739261E-02
       119  8.787483E-16  1.697326E-01  2.876060E-02
       120  2.908457E-04  2.039307E-01  2.968403E-02
       121  1.034361E-15  2.039953E-01  2.967718E-02
       122 -2.908457E-04  2.039307E-01  2.968403E-02
       123  1.254593E-15  2.401725E-01  3.013722E-02
       124  1.927969E-04  2.778868E-01  3.017213E-02
       125  1.486180E-15  2.779291E-01  3.016692E-02
       126 -1.927969E-04  2.778868E-01  3.017213E-02
       127  1.709834E-15  3.169234E-01  2.976359E-02
       128  1.209463E-04  3.568956E-01  2.898224E-02
       129  1.921598E-15  3.568435E-01  2.898460E-02
       130 -1.209463E-04  3.568956E-01  2.898224E-02
       131  2.114926E-15  3.974486E-01  2.782342E-02
       132  1.072615E-05  1.738018E-03 -2.164362E-05
       133 -5.616394E-04  9.250728E-03  4.499586E-03
       134  9.332634E-06  9.259290E-03 -8.414484E-05
       135  5.715891E-04  9.151917E-03 -4.673735E-03
       136  8.973626E-06  2.082419E-02 -2.286764E-04
       137 -5.544114E-04  3.716430E-02  8.258020E-03
       138  6.544711E-06  3.692675E-02 -4.946519E-04
       139  5.622226E-04  3.684630E-02 -9.253156E-03
       140  4.853078E-06  5.665871E-02 -8.882940E-04
       141 -4.745240E-04  8.043957E-02  1.083514E-02
       142  3.825779E-06  8.004653E-02 -1.437609E-03
       143  4.782360E-04  7.982835E-02 -1.372082E-02
       144  2.660638E-06  1.065564E-01 -2.140543E-03
       145 -3.832922E-04  1.365494E-01  1.214492E-02
       146  1.566543E-06  1.359977E-01 -3.006479E-03
       147  3.839032E-04  1.356238E-01 -1.816945E-02
       148  4.413575E-07  1.679751E-01 -4.026756E-03
       149 -2.896968E-04  2.028787E-01  1.219635E-02
       150 -2.022418E-07  2.021942E-01 -5.194529E-03
       151  2.876843E-04  2.016622E-01 -2.259665E-02
       152 -1.005083E-06  2.383473E-01 -6.497130E-03
       153 -1.990192E-04  2.768628E-01  1.107163E-02
       154 -1.163821E-06  2.760629E-01 -7.914317E-03
       155  1.946442E-04  2.754137E-01 -2.691381E-02
       156 -2.612997E-06  3.151105E-01 -9.435744E-03
       157 -1.010955E-04  3.558952E-01  8.937407E-03
       158 -2.560672E-06  3.550194E-01 -1.102368E-02
       159  9.320739E-05  3.542921E-01 -3.099246E-02
       160 -6.970558E-07  3.957384E-01 -1.267202E-02
       161  6.168819E-19  3.316241E-03 -4.518790E-03
       162  5.567637E-04  1.002497E-02 -9.420594E-03
       163  2.832002E-17  1.014860E-02 -9.492029E-03
       164 -5.567637E-04  1.002497E-02 -9.420594E-03
       165  6.587225E-17  2.196887E-02 -1.387720E-02
       166  5.603985E-04  3.745574E-02 -1.818732E-02
       167  1.363098E-16  3.762672E-02 -1.819865E-02
       168 -5.603985E-04  3.745574E-02 -1.818732E-02
       169  2.072585E-16  5.728753E-02 -2.224176E-02
       170  4.759340E-04  8.022082E-02 -2.615681E-02
       171  3.068744E-16  8.034451E-02 -2.616375E-02
       172 -4.759340E-04  8.022082E-02 -2.615681E-02
       173  4.574558E-16  1.066577E-01 -2.990513E-02
       174  3.830372E-04  1.357192E-01 -3.348960E-02
       175  6.170927E-16  1.358180E-01 -3.349367E-02
       176 -3.830372E-04  1.357192E-01 -3.348960E-02
       177  6.832826E-16  1.675649E-01 -3.690602E-02
       178  2.890984E-04  2.014806E-01 -4.014726E-02
       179  8.491395E-16  2.015461E-01 -4.014971E-02
       180 -2.890984E-04  2.014806E-01 -4.014726E-02
       181  1.080583E-15  2.374721E-01 -4.320364E-02
       182  1.898450E-04  2.749693E-01 -4.606011E-02
       183  1.295662E-15  2.750135E-01 -4.605997E-02
       184 -1.898450E-04  2.749693E-01 -4.606011E-02
       185  1.483294E-15  3.138350E-01 -4.867859E-02
       186  1.150665E-04  3.536775E-01 -5.106912E-02
       187  1.659420E-15  3.536279E-01 -5.106784E-02
       188 -1.150665E-04  3.536775E-01 -5.106912E-02
       189  1.905195E-15  3.941611E-01 -5.317858E-02
       190 -1.072615E-05  1.738018E-03 -2.164362E-05
       191 -5.715891E-04  9.151917E-03 -4.673735E-03
       192 -9.332634E-06  9.259290E-03 -8.414484E-05
       193  5.616394E-04  9.250728E-03  4.499586E-03
       194 -8.973626E-06  2.082419E-02 -2.286764E-04
       195 -5.622226E-04  3.684630E-02 -9.253156E-03
       196 -6.544711E-06  3.692675E-02 -4.946519E-04
       197  5.544114E-04  3.716430E-02  8.258020E-03
       198 -4.853078E-06  5.665871E-02 -8.882940E-04
       199 -4.782360E-04  7.982835E-02 -1.372082E-02
       200 -3.825779E-06  8.004653E-02 -1.437609E-03
       201  4.745240E-04  8.043957E-02  1.083514E-02
       202 -2.660638E-06  1.065564E-01 -2.140543E-03
       203 -3.839032E-04  1.356238E-01 -1.816945E-02
       204 -1.566543E-06  1.359977E-01 -3.006479E-03
       205  3.832922E-04  1.365494E-01  1.214492E-02
       206 -4.413575E-07  1.679751E-01 -4.026756E-03
       207 -2.876843E-04  2.016622E-01 -2.259665E-02
       208  2.022418E-07  2.021942E-01 -5.194529E-03
       209  2.896968E-04  2.028787E-01  1.219635E-02
       210  1.005083E-06  2.383473E-01 -6.497130E-03
       211 -1.946442E-04  2.754137E-01 -2.691381E-02
       212  1.163821E-06  2.760629E-01 -7.914317E-03
       213  1.990192E-04  2.768628E-01  1.107163E-02
       214  2.612997E-06  3.151105E-01 -9.435744E-03
       215 -9.320739E-05  3.542921E-01 -3.099246E-02
       216  2.560672E-06  3.550194E-01 -1.102368E-02
       217  1.010955E-04  3.558952E-01  8.937407E-03
       218  6.970558E-07  3.957384E-01 -1.267202E-02
       219  9.058292E-18  2.394848E-03 -2.768410E-05
       220  4.847311E-17  9.885075E-03  4.539651E-03
       221 -5.097204E-06  9.781484E-03 -9.383922E-05
       222  4.373236E-17  9.872880E-03 -9.692667E-05
       223  5.097204E-06  9.781484E-03 -9.383922E-05
       224  3.700568E-17  9.782911E-03 -4.742017E-03
       225  9.259192E-17  2.144861E-02 -2.465959E-04
       226  1.825210E-16  3.774868E-02  8.268361E-03
       227 -3.522103E-06  3.733753E-02 -5.106299E-04
       228  1.620546E-16  3.748655E-02 -5.154329E-04
       229  3.522103E-06  3.733753E-02 -5.106299E-04
       230  1.562567E-16  3.742828E-02 -9.306734E-03
       231  2.621489E-16  5.719208E-02 -9.118938E-04
       232  4.047361E-16  8.092303E-02  1.083241E-02
       233 -2.102338E-06  8.040628E-02 -1.455635E-03
       234  3.742600E-16  8.051908E-02 -1.461336E-03
       235  2.102338E-06  8.040628E-02 -1.455635E-03
       236  3.485520E-16  8.030877E-02 -1.376677E-02
       237  5.136628E-16  1.069904E-01 -2.165178E-03
       238  6.696280E-16  1.369353E-01  1.214163E-02
       239 -8.951775E-07  1.362843E-01 -3.024591E-03
       240  6.544568E-16  1.363806E-01 -3.030415E-03
       241  8.951775E-07  1.362843E-01 -3.024591E-03
       242  6.052077E-16  1.360065E-01 -1.821402E-02
       243  7.840162E-16  1.683101E-01 -4.049120E-03
       244  1.022986E-15  2.031671E-01  1.219590E-02
       245  2.593494E-09  2.024130E-01 -5.210152E-03
       246  9.213025E-16  2.024883E-01 -5.215500E-03
       247 -2.593493E-09  2.024130E-01 -5.210152E-03
       248  9.270574E-16  2.019476E-01 -2.263718E-02
       249  1.144108E-15  2.385806E-01 -6.514753E-03
       250  1.410910E-15  2.770473E-01  1.107908E-02
       251  6.678197E-07  2.762148E-01 -7.926723E-03
       252  1.404386E-15  2.762677E-01 -7.931054E-03
       253 -6.678197E-07  2.762148E-01 -7.926723E-03
       254  1.321789E-15  2.755956E-01 -2.694926E-02
       255  1.600586E-15  3.152481E-01 -9.445561E-03
       256  1.870889E-15  3.559657E-01  8.942388E-03
       257  9.869594E-07  3.550970E-01 -1.102860E-02
       258  1.793142E-15  3.551400E-01 -1.103122E-02
       259 -9.869594E-07  3.550970E-01 -1.102860E-02
       260  1.749846E-15  3.543643E-01 -3.101080E-02
       261  2.042712E-15  3.957424E-01 -1.267729E-02

 stresses (elem, integ.pnt.,sxx,syy,szz,sxy,sxz,syz) for set EALL and time  0.1000000E+01

         1   1  3.043864E+02  3.034356E+02  1.710663E+03 -3.736551E+01  1.583773E+02  6.131542E+01
         1   2  2.879182E+02  2.869564E+02  1.666414E+03  1.116702E+01  3.269002E+01  1.380625E+02
         1   3  5.258391E+00 -9.315888E+01  3.687301E+02 -3.811808E+01  4.047034E+01 -3.755193E+01
         1   4  1.174813E+00 -9.584273E+01  3.560071E+02  1.110368E+01  8.151037E+00  3.887524E+01
         1   5 -8.404434E+01 -7.546210E+01  1.516927E+03 -1.468219E+01 -6.289196E+01  2.274284E+01
         1   6 -4.859433E+01 -5.372186E+01  1.588128E+03  3.773973E+00 -1.932066E+01  1.900921E+01
         1   7 -4.059689E+01 -6.144303E+01  3.745286E+02 -1.805796E+01 -1.671858E+01  1.007079E+02
         1   8 -3.323060E+01 -5.933908E+01  3.895615E+02  5.303068E-01 -5.528339E+00  9.708615E+01
         2   1  2.879182E+02  2.869564E+02  1.666414E+03 -1.116702E+01 -3.269002E+01  1.380625E+02
         2   2  3.043864E+02  3.034356E+02  1.710663E+03  3.736551E+01 -1.583773E+02  6.131542E+01
         2   3  1.174813E+00 -9.584273E+01  3.560071E+02 -1.110368E+01 -8.151037E+00  3.887524E+01
         2   4  5.258391E+00 -9.315888E+01  3.687301E+02  3.811808E+01 -4.047034E+01 -3.755193E+01
         2   5 -4.859433E+01 -5.372186E+01  1.588128E+03 -3.773973E+00  1.932066E+01  1.900921E+01
         2   6 -8.404434E+01 -7.546210E+01  1.516927E+03  1.468219E+01  6.289196E+01  2.274284E+01
         2   7 -3.323060E+01 -5.933908E+01  3.895615E+02 -5.303068E-01  5.528339E+00  9.708615E+01
         2   8 -4.059689E+01 -6.144303E+01  3.745286E+02  1.805796E+01  1.671858E+01  1.007079E+02
         3   1 -9.098328E+00  8.204122E+01 -3.846238E+02 -3.857254E+01 -4.326735E+01 -4.108207E+01
         3   2 -5.918828E+00  8.473077E+01 -3.752794E+02  1.113219E+01 -8.839669E+00  3.496927E+01
         3   3 -3.051757E+02 -3.102660E+02 -1.681176E+03 -3.919424E+01 -1.541544E+02  4.579316E+01
         3   4 -2.897002E+02 -2.922654E+02 -1.641404E+03  1.118464E+01 -3.157552E+01  1.198647E+02
         3   5  4.229287E+01  5.293459E+01 -3.874713E+02 -1.684240E+01  1.778032E+01  8.736236E+01
         3   6  3.239536E+01  4.566848E+01 -4.086442E+02  1.018706E+00  5.899485E+00  8.334421E+01
         3   7  8.646171E+01  6.889747E+01 -1.486535E+03 -1.236901E+01  6.274473E+01 -2.224735E+01
         3   8  5.134516E+01  4.453575E+01 -1.559778E+03  5.645888E+00  1.931294E+01 -2.695416E+01
         4   1 -5.918828E+00  8.473077E+01 -3.752794E+02 -1.113219E+01  8.839669E+00  3.496927E+01
         4   2 -9.098328E+00  8.204122E+01 -3.846238E+02  3.857254E+01  4.326735E+01 -4.108207E+01
         4   3 -2.897002E+02 -2.922654E+02 -1.641404E+03 -1.118464E+01  3.157552E+01  1.198647E+02
         4   4 -3.051757E+02 -3.102660E+02 -1.681176E+03  3.919424E+01  1.541544E+02  4.579316E+01
         4   5  3.239536E+01  4.566848E+01 -4.086442E+02 -1.018706E+00 -5.899485E+00  8.334421E+01
         4   6  4.229287E+01  5.293459E+01 -3.874713E+02  1.684240E+01 -1.778032E+01  8.736236E+01
         4   7  5.134516E+01  4.453575E+01 -1.559778E+03 -5.645888E+00 -1.931294E+01 -2.695416E+01
         4   8  8.646171E+01  6.889747E+01 -1.486535E+03  1.236901E+01 -6.274473E+01 -2.224735E+01
         5   1  2.552610E+01  9.019877E-01  1.460275E+03  2.002630E+01  2.304509E+01  8.598595E+01
         5   2  2.030041E+01 -1.457808E+01  1.428911E+03 -1.244754E+01  1.128545E+01  7.521690E+01
         5   3  4.331874E+01  8.484089E+01  4.176372E+02  1.784410E+01  5.275443E+00  5.306585E+01
         5   4  4.354872E+01  8.331232E+01  4.111953E+02 -1.403280E+01  2.487985E+00  4.905307E+01
         5   5 -1.736616E+01 -2.586244E+01  1.324866E+03 -3.948419E+00 -1.298504E+01  5.481349E+01
         5   6 -8.442123E+00 -1.932549E+01  1.339181E+03 -1.220704E+00 -5.994547E+00  5.545976E+01
         5   7 -1.316027E+01 -2.531630E+01  3.341612E+02 -3.694352E+00 -2.857580E+00  9.453198E+01
         5   8 -1.070397E+01 -2.463456E+01  3.387065E+02 -7.828973E-01 -8.990663E-01  8.754575E+01
         6   1  2.030041E+01 -1.457808E+01  1.428911E+03  1.244754E+01 -1.128545E+01  7.521690E+01
         6   2  2.552610E+01  9.019877E-01  1.460275E+03 -2.002630E+01 -2.304509E+01  8.598595E+01
         6   3  4.354872E+01  8.331232E+01  4.111953E+02  1.403280E+01 -2.487985E+00  4.905307E+01
         6   4  4.331874E+01  8.484089E+01  4.176372E+02 -1.784410E+01 -5.275443E+00  5.306585E+01
         6   5 -8.442123E+00 -1.932549E+01  1.339181E+03  1.220704E+00  5.994547E+00  5.545976E+01
         6   6 -1.736616E+01 -2.586244E+01  1.324866E+03  3.948419E+00  1.298504E+01  5.481349E+01
         6   7 -1.070397E+01 -2.463456E+01  3.387065E+02  7.828973E-01  8.990663E-01  8.754575E+01
         6   8 -1.316027E+01 -2.531630E+01  3.341612E+02  3.694352E+00  2.857580E+00  9.453198E+01
         7   1 -4.572743E+01 -9.674870E+01 -4.326215E+02  1.867352E+01 -6.156191E+00  3.569930E+01
         7   2 -4.657815E+01 -9.958467E+01 -4.294462E+02 -1.383877E+01 -2.737461E+00  3.166502E+01
         7   3 -2.631335E+01 -8.182126E-01 -1.434867E+03  1.996800E+01 -2.377400E+01  2.049359E+01
         7   4 -1.743991E+01  1.356067E+01 -1.404692E+03 -1.194147E+01 -1.133901E+01  1.012150E+01
         7   5  1.362533E+01  2.606678E+01 -3.503833E+02 -2.804197E+00  3.131768E+00  7.035767E+01
         7   6  9.589342E+00  2.038747E+01 -3.580709E+02 -5.229346E-01  1.118259E+00  6.343881E+01
         7   7  1.852191E+01  2.335976E+01 -1.300581E+03 -2.715937E+00  1.279658E+01 -3.282617E+01
         7   8  1.033508E+01  1.519354E+01 -1.317227E+03 -2.042844E-01  5.985656E+00 -3.209058E+01
         8   1 -4.657815E+01 -9.958467E+01 -4.294462E+02  1.383877E+01  2.737461E+00  3.166502E+01
         8   2 -4.572743E+01 -9.674870E+01 -4.326215E+02 -1.867352E+01  6.156191E+00  3.569930E+01
         8   3 -1.743991E+01  1.356067E+01 -1.404692E+03  1.194147E+01  1.133901E+01  1.012150E+01
         8   4 -2.631335E+01 -8.182126E-01 -1.434867E+03 -1.996800E+01  2.377400E+01  2.049359E+01
         8   5  9.589342E+00  2.038747E+01 -3.580709E+02  5.229346E-01 -1.118259E+00  6.343881E+01
         8   6  1.362533E+01  2.606678E+01 -3.503833E+02  2.804197E+00 -3.131768E+00  7.035767E+01
         8   7  1.033508E+01  1.519354E+01 -1.317227E+03  2.042844E-01 -5.985656E+00 -3.209058E+01
         8   8  1.852191E+01  2.335976E+01 -1.300581E+03  2.715937E+00 -1.279658E+01 -3.282617E+01
         9   1  1.407257E+01  3.179367E+01  1.240484E+03 -1.985592E+00  3.284980E+00  8.446877E+01
         9   2  1.119059E+01  2.670645E+01  1.233208E+03  3.731452E+00 -6.876655E-01  7.756934E+01
         9   3  2.697921E+00  5.705848E+00  3.225691E+02 -2.374633E+00  1.789834E+00  7.336783E+01
         9   4  3.389928E-04 -2.937751E-01  3.184310E+02  3.723898E+00  8.306267E-01  6.474677E+01
         9   5 -4.365615E+00 -6.680942E+00  1.111833E+03 -1.386968E+00 -4.782320E+00  7.507117E+01
         9   6 -1.915444E+00 -4.432370E+00  1.114109E+03 -1.018540E+00 -3.159253E+00  7.259535E+01
         9   7 -4.636857E+00 -6.672387E+00  2.849299E+02 -6.817235E-01 -4.409654E-01  8.802025E+01
         9   8 -3.953026E+00 -6.530058E+00  2.856916E+02 -7.860718E-02 -2.994438E-03  7.889397E+01
        10   1  1.119059E+01  2.670645E+01  1.233208E+03 -3.731452E+00  6.876655E-01  7.756934E+01
        10   2  1.407257E+01  3.179367E+01  1.240484E+03  1.985592E+00 -3.284980E+00  8.446877E+01
        10   3  3.389928E-04 -2.937751E-01  3.184310E+02 -3.723898E+00 -8.306267E-01  6.474677E+01
        10   4  2.697921E+00  5.705848E+00  3.225691E+02  2.374633E+00 -1.789834E+00  7.336783E+01
        10   5 -1.915444E+00 -4.432370E+00  1.114109E+03  1.018540E+00  3.159253E+00  7.259535E+01
        10   6 -4.365615E+00 -6.680942E+00  1.111833E+03  1.386968E+00  4.782320E+00  7.507117E+01
        10   7 -3.953026E+00 -6.530058E+00  2.856916E+02  7.860718E-02  2.994438E-03  7.889397E+01
        10   8 -4.636857E+00 -6.672387E+00  2.849299E+02  6.817235E-01  4.409654E-01  8.802025E+01
        11   1 -3.631808E+00 -6.422758E+00 -3.370621E+02 -1.806036E+00 -2.128537E+00  4.833926E+01
        11   2 -1.919625E+00 -4.312247E+00 -3.345972E+02  3.923713E+00 -8.013286E-01  3.969173E+01
        11   3 -1.379128E+01 -3.106026E+01 -1.222759E+03 -1.515640E+00 -3.691055E+00 -1.001927E+01
        11   4 -1.003245E+01 -2.768732E+01 -1.216304E+03  4.601491E+00  5.364384E-01 -1.697958E+01
        11   5  4.412768E+00  1.377183E+01 -3.009457E+02 -1.362902E-01  3.257903E-01  5.896854E+01
        11   6  2.821478E+00  9.329952E+00 -3.025816E+02  7.029313E-02  3.021147E-02  5.005113E+01
        11   7  4.926317E+00  8.624368E+00 -1.095575E+03 -6.006292E-01  4.617869E+00 -3.045471E+01
        11   8  3.227774E+00  4.974671E+00 -1.098983E+03 -2.572942E-01  3.173639E+00 -3.260839E+01
        12   1 -1.919625E+00 -4.312247E+00 -3.345972E+02 -3.923713E+00  8.013286E-01  3.969173E+01
        12   2 -3.631808E+00 -6.422758E+00 -3.370621E+02  1.806036E+00  2.128537E+00  4.833926E+01
        12   3 -1.003245E+01 -2.768732E+01 -1.216304E+03 -4.601491E+00 -5.364384E-01 -1.697958E+01
        12   4 -1.379128E+01 -3.106026E+01 -1.222759E+03  1.515640E+00  3.691055E+00 -1.001927E+01
        12   5  2.821478E+00  9.329952E+00 -3.025816E+02 -7.029313E-02 -3.021147E-02  5.005113E+01
        12   6  4.412768E+00  1.377183E+01 -3.009457E+02  1.362902E-01 -3.257903E-01  5.896854E+01
        12   7  3.227774E+00  4.974671E+00 -1.098983E+03  2.572942E-01 -3.173639E+00 -3.260839E+01
        12   8  4.926317E+00  8.624368E+00 -1.095575E+03  6.006292E-01 -4.617869E+00 -3.045471E+01
        13   1  1.804898E+00  8.084897E+00  1.019961E+03  1.362338E+00 -1.361929E+00  8.514210E+01
        13   2  1.451313E+00  5.066015E+00  1.018338E+03 -7.481505E-01 -1.745199E+00  7.975940E+01
        13   3  4.306340E+00  1.487001E+01  2.684415E+02  8.111709E-01  4.181705E-01  7.899845E+01
        13   4  3.352305E+00  1.146212E+01  2.673997E+02 -1.073762E+00  3.421071E-01  7.087795E+01
        13   5 -1.489172E+00  1.126570E+00  8.960564E+02 -8.668631E-01 -3.094695E+00  7.913891E+01
        13   6 -4.832936E-01  2.104018E+00  8.967714E+02 -4.568513E-01 -2.517331E+00  7.526125E+01
        13   7 -2.141874E+00  2.221204E+00  2.292068E+02 -2.887340E-01 -3.252447E-02  8.466820E+01
        13   8 -1.805407E+00  1.807958E+00  2.300508E+02  6.278970E-02  1.587992E-01  7.590087E+01
        14   1  1.451313E+00  5.066015E+00  1.018338E+03  7.481505E-01  1.745199E+00  7.975940E+01
        14   2  1.804898E+00  8.084897E+00  1.019961E+03 -1.362338E+00  1.361929E+00  8.514210E+01
        14   3  3.352305E+00  1.146212E+01  2.673997E+02  1.073762E+00 -3.421071E-01  7.087795E+01
        14   4  4.306340E+00  1.487001E+01  2.684415E+02 -8.111709E-01 -4.181705E-01  7.899845E+01
        14   5 -4.832936E-01  2.104018E+00  8.967714E+02  4.568513E-01  2.517331E+00  7.526125E+01
        14   6 -1.489172E+00  1.126570E+00  8.960564E+02  8.668631E-01  3.094695E+00  7.913891E+01
        14   7 -1.805407E+00  1.807958E+00  2.300508E+02 -6.278970E-02 -1.587992E-01  7.590087E+01
        14   8 -2.141874E+00  2.221204E+00  2.292068E+02  2.887340E-01  3.252447E-02  8.466820E+01
        15   1 -4.818649E+00 -8.370743E+00 -2.828307E+02  1.259762E+00 -5.403176E-01  5.063398E+01
        15   2 -4.577608E+00 -8.719490E+00 -2.823541E+02 -9.497860E-01 -3.032616E-01  4.241515E+01
        15   3 -1.711968E+00 -4.604292E+00 -1.008274E+03  1.925819E+00  9.406707E-01 -2.099559E+01
        15   4 -4.926318E-01 -3.212657E+00 -1.006851E+03 -4.635061E-02  1.659866E+00 -2.643871E+01
        15   5  2.100363E+00  9.820478E+00 -2.446484E+02  6.127267E-02 -6.172480E-02  5.572114E+01
        15   6  1.127849E+00  6.450429E+00 -2.452270E+02  1.498814E-01 -1.210075E-01  4.713072E+01
        15   7  1.892558E+00  3.249243E+00 -8.862837E+02 -2.496504E-01  2.953503E+00 -2.731991E+01
        15   8  1.430318E+00  8.447124E-01 -8.871432E+02  1.776834E-01  2.540898E+00 -3.091278E+01
        16   1 -4.577608E+00 -8.719490E+00 -2.823541E+02  9.497860E-01  3.032616E-01  4.241515E+01
        16   2 -4.818649E+00 -8.370743E+00 -2.828307E+02 -1.259762E+00  5.403176E-01  5.063398E+01
        16   3 -4.926318E-01 -3.212657E+00 -1.006851E+03  4.635061E-02 -1.659866E+00 -2.643871E+01
        16   4 -1.711968E+00 -4.604292E+00 -1.008274E+03 -1.925819E+00 -9.406707E-01 -2.099559E+01
        16   5  1.127849E+00  6.450429E+00 -2.452270E+02 -1.498814E-01  1.210075E-01  4.713072E+01
        16   6  2.100363E+00  9.820478E+00 -2.446484E+02 -6.127267E-02  6.172480E-02  5.572114E+01
        16   7  1.430318E+00  8.447124E-01 -8.871432E+02 -1.776834E-01 -2.540898E+00 -3.091278E+01
        16   8  1.892558E+00  3.249243E+00 -8.862837E+02  2.496504E-01 -2.953503E+00 -2.731991E+01
        17   1  1.648754E+00  9.992549E+00  8.048640E+02 -1.114640E-01 -2.200623E+00  7.924103E+01
        17   2  1.251660E+00  7.881007E+00  8.044183E+02  2.441375E-01 -2.357460E+00  7.524449E+01
        17   3  1.127340E+00  1.024864E+01  2.082480E+02 -3.683836E-01  1.827457E-01  8.131164E+01
        17   4  2.227913E-01  6.942474E+00  2.079780E+02  1.218161E-01  2.215759E-01  7.273934E+01
        17   5 -1.423494E+00  3.989857E+00  6.808394E+02 -3.856079E-01 -2.155644E+00  7.532684E+01
        17   6 -6.189436E-01  4.118511E+00  6.815767E+02 -1.347092E+00 -2.431666E+00  7.036817E+01
        17   7 -1.487485E+00  5.057043E+00  1.733232E+02  2.101460E-01  1.071483E-01  8.062265E+01
        17   8 -8.046902E-01  5.259178E+00  1.746292E+02  7.382914E-02  9.597006E-02  7.238968E+01
        18   1  1.251660E+00  7.881007E+00  8.044183E+02 -2.441375E-01  2.357460E+00  7.524449E+01
        18   2  1.648754E+00  9.992549E+00  8.048640E+02  1.114640E-01  2.200623E+00  7.924103E+01
        18   3  2.227913E-01  6.942474E+00  2.079780E+02 -1.218161E-01 -2.215759E-01  7.273934E+01
        18   4  1.127340E+00  1.024864E+01  2.082480E+02  3.683836E-01 -1.827457E-01  8.131164E+01
        18   5 -6.189436E-01  4.118511E+00  6.815767E+02  1.347092E+00  2.431666E+00  7.036817E+01
        18   6 -1.423494E+00  3.989857E+00  6.808394E+02  3.856079E-01  2.155644E+00  7.532684E+01
        18   7 -8.046902E-01  5.259178E+00  1.746292E+02 -7.382914E-02 -9.597006E-02  7.238968E+01
        18   8 -1.487485E+00  5.057043E+00  1.733232E+02 -2.101460E-01 -1.071483E-01  8.062265E+01
        19   1 -1.498459E+00  2.591779E+00 -2.232334E+02 -9.813950E-02 -2.678085E-01  5.411335E+01
        19   2 -1.020235E+00  2.433987E+00 -2.220975E+02  1.922705E-01 -1.486805E-01  4.544282E+01
        19   3 -1.546167E+00 -4.793386E+00 -7.977845E+02  4.064492E-01  1.881878E+00 -2.235936E+01
        19   4 -7.254444E-01 -4.118956E+00 -7.971611E+02  8.393729E-01  2.277570E+00 -2.647815E+01
        19   5  1.366607E+00  1.102302E+01 -1.882183E+02  4.239188E-01 -2.183964E-01  5.507242E+01
        19   6  4.330360E-01  7.682644E+00 -1.883059E+02  1.402002E-01 -1.411903E-01  4.699853E+01
        19   7  1.582369E+00  2.817692E+00 -6.763166E+02  1.350902E-01  2.159026E+00 -1.885806E+01
        19   8  1.115409E+00  1.054960E+00 -6.762414E+02 -7.875413E-01  2.478584E+00 -2.348069E+01
        20   1 -1.020235E+00  2.433987E+00 -2.220975E+02 -1.922705E-01  1.486805E-01  4.544282E+01
        20   2 -1.498459E+00  2.591779E+00 -2.232334E+02  9.813950E-02  2.678085E-01  5.411335E+01
        20   3 -7.254444E-01 -4.118956E+00 -7.971611E+02 -8.393729E-01 -2.277570E+00 -2.647815E+01
        20   4 -1.546167E+00 -4.793386E+00 -7.977845E+02 -4.064492E-01 -1.881878E+00 -2.235936E+01
        20   5  4.330360E-01  7.682644E+00 -1.883059E+02 -1.402002E-01  1.411903E-01  4.699853E+01
        20   6  1.366607E+00  1.102302E+01 -1.882183E+02 -4.239188E-01  2.183964E-01  5.507242E+01
        20   7  1.115409E+00  1.054960E+00 -6.762414E+02  7.875413E-01 -2.478584E+00 -2.348069E+01
        20   8  1.582369E+00  2.817692E+00 -6.763166E+02 -1.350902E-01 -2.159026E+00 -1.885806E+01
        21   1  1.661742E+00  9.938127E+00  5.908170E+02  4.089537E-01 -3.059493E+00  6.882125E+01