
 displacements (vx,vy,vz) for set NALL and time  0.1000000E+01

         1  0.000000E+00  0.000000E+00  0.000000E+00
         2  7.613340E-03  0.000000E+00  0.000000E+00
         3  1.337538E-02  1.295977E-02  0.000000E+00
         4 -5.762045E-03  1.295977E-02  0.000000E+00
         5  1.785454E-05 -3.673104E-01  5.911627E-02
         6  7.595485E-03 -3.673104E-01  5.911627E-02
         7  1.335370E-02 -3.544495E-01  1.509734E-01
         8 -5.740362E-03 -3.544495E-01  1.509734E-01
         9  1.913729E-03  9.846974E-04  0.000000E+00
        10  3.806670E-03  1.341989E-03  0.000000E+00
        11  5.699611E-03  9.846974E-04  0.000000E+00
        12  8.918066E-03  2.211214E-03  0.000000E+00
        13  1.027925E-02  5.041901E-03  0.000000E+00
        14  1.179497E-02  8.590287E-03  0.000000E+00
        15  8.578171E-03  1.413718E-02  0.000000E+00
        16  3.806670E-03  1.449540E-02  0.000000E+00
        17 -9.648309E-04  1.413718E-02  0.000000E+00
        18 -4.181626E-03  8.590287E-03  0.000000E+00
        19 -2.665910E-03  5.041901E-03  0.000000E+00
        20 -1.304726E-03  2.211214E-03  0.000000E+00
        21  1.920200E-03 -3.663058E-01  5.911982E-02
        22  3.806670E-03 -3.659460E-01  5.912488E-02
        23  5.693140E-03 -3.663058E-01  5.911982E-02
        24  8.924526E-03 -3.651278E-01  8.198795E-02
        25  1.029985E-02 -3.623136E-01  1.048850E-01
        26  1.180077E-02 -3.587852E-01  1.279135E-01
        27  8.570386E-03 -3.532943E-01  1.509770E-01
        28  3.806670E-03 -3.529381E-01  1.509825E-01
        29 -9.570463E-04 -3.532943E-01  1.509770E-01
        30 -4.187428E-03 -3.587852E-01  1.279135E-01
        31 -2.686514E-03 -3.623136E-01  1.048850E-01
        32 -1.311186E-03 -3.651278E-01  8.198795E-02
        33  7.613339E-03 -1.434991E-03  3.689463E-03
        34  7.613340E-03 -5.739969E-03  7.378927E-03
        35  7.613337E-03 -1.291493E-02  1.106839E-02
        36  7.613342E-03 -2.295987E-02  1.475786E-02
        37  7.613343E-03 -3.587479E-02  1.844731E-02
        38  7.613347E-03 -5.165972E-02  2.213677E-02
        39  7.613309E-03 -7.031463E-02  2.582627E-02
        40  7.613347E-03 -9.183952E-02  2.951576E-02
        41  7.613405E-03 -1.162342E-01  3.320510E-02
        42  7.613382E-03 -1.434993E-01  3.689442E-02
        43  7.613037E-03 -1.736343E-01  4.058448E-02
        44  7.612895E-03 -2.066383E-01  4.427403E-02
        45  7.614564E-03 -2.425123E-01  4.796289E-02
        46  7.614928E-03 -2.812471E-01  5.165153E-02
        47  7.602431E-03 -3.229004E-01  5.535216E-02
        48  1.090836E-05 -3.229004E-01  5.535216E-02
        49 -1.588627E-06 -2.812471E-01  5.165153E-02
        50 -1.224657E-06 -2.425123E-01  4.796289E-02
        51  4.449447E-07 -2.066383E-01  4.427403E-02
        52  3.025785E-07 -1.736343E-01  4.058448E-02
        53 -4.248664E-08 -1.434993E-01  3.689442E-02
        54 -6.523912E-08 -1.162342E-01  3.320510E-02
        55 -7.394689E-09 -9.183952E-02  2.951576E-02
        56  3.068461E-08 -7.031463E-02  2.582627E-02
        57 -7.598145E-09 -5.165972E-02  2.213677E-02
        58 -3.735469E-09 -3.587479E-02  1.844731E-02
        59 -2.013678E-09 -2.295987E-02  1.475786E-02
        60  2.872406E-09 -1.291493E-02  1.106839E-02
        61  6.811576E-11 -5.739969E-03  7.378927E-03
        62  4.957477E-10 -1.434991E-03  3.689463E-03
        63  1.337538E-02  1.152478E-02  9.429431E-03
        64  1.337538E-02  7.219805E-03  1.885886E-02
        65  1.337538E-02  4.484693E-05  2.828830E-02
        66  1.337539E-02 -1.000010E-02  3.771773E-02
        67  1.337539E-02 -2.291504E-02  4.714715E-02
        68  1.337539E-02 -3.869993E-02  5.657658E-02
        69  1.337536E-02 -5.735480E-02  6.600604E-02
        70  1.337539E-02 -7.887969E-02  7.543552E-02
        71  1.337546E-02 -1.032747E-01  8.486480E-02
        72  1.337538E-02 -1.305394E-01  9.429406E-02
        73  1.337509E-02 -1.606739E-01  1.037242E-01
        74  1.337482E-02 -1.936798E-01  1.131538E-01
        75  1.337681E-02 -2.295551E-01  1.225825E-01
        76  1.337709E-02 -2.683126E-01  1.320111E-01
        77  1.336237E-02 -3.098818E-01  1.414541E-01
        78 -5.762045E-03  1.152478E-02  9.429431E-03
        79 -5.762045E-03  7.219805E-03  1.885886E-02
        80 -5.762043E-03  4.484693E-05  2.828830E-02
        81 -5.762047E-03 -1.000010E-02  3.771773E-02
        82 -5.762049E-03 -2.291504E-02  4.714715E-02
        83 -5.762049E-03 -3.869993E-02  5.657658E-02
        84 -5.762016E-03 -5.735480E-02  6.600604E-02
        85 -5.762048E-03 -7.887969E-02  7.543552E-02
        86 -5.762121E-03 -1.032747E-01  8.486480E-02
        87 -5.762044E-03 -1.305394E-01  9.429406E-02
        88 -5.761748E-03 -1.606739E-01  1.037242E-01
        89 -5.761477E-03 -1.936798E-01  1.131538E-01
        90 -5.763472E-03 -2.295551E-01  1.225825E-01
        91 -5.763755E-03 -2.683126E-01  1.320111E-01
        92 -5.749033E-03 -3.098818E-01  1.414541E-01
        93  3.806670E-03  3.586001E-03  0.000000E+00
        94  5.692116E-04  6.117412E-03  0.000000E+00
        95  3.806670E-03  6.475702E-03  0.000000E+00
        96  7.044128E-03  6.117412E-03  0.000000E+00
        97  3.806670E-03  1.008676E-02  0.000000E+00
        98  3.806670E-03 -3.637407E-01  8.197810E-02
        99  5.589873E-04 -3.612374E-01  1.048762E-01
       100  3.806670E-03 -3.608788E-01  1.048619E-01
       101  7.054352E-03 -3.612374E-01  1.048762E-01
       102  3.806670E-03 -3.573007E-01  1.279034E-01
       103  3.806670E-03 -9.300262E-05  3.689463E-03
       104  1.913729E-03 -4.755271E-03  7.378926E-03
       105  3.806670E-03 -4.397979E-03  7.378927E-03
       106  5.699610E-03 -4.755271E-03  7.378926E-03
       107  3.806670E-03 -1.157294E-02  1.106839E-02
       108  1.913727E-03 -2.197517E-02  1.475786E-02
       109  3.806670E-03 -2.161788E-02  1.475786E-02
       110  5.699613E-03 -2.197517E-02  1.475786E-02
       111  3.806670E-03 -3.453280E-02  1.844731E-02
       112  1.913729E-03 -5.067502E-02  2.213676E-02
       113  3.806670E-03 -5.031772E-02  2.213676E-02
       114  5.699611E-03 -5.067502E-02  2.213676E-02
       115  3.806670E-03 -6.897264E-02  2.582628E-02
       116  1.913713E-03 -9.085476E-02  2.951579E-02
       117  3.806670E-03 -9.049743E-02  2.951574E-02
       118  5.699626E-03 -9.085476E-02  2.951579E-02
       119  3.806670E-03 -1.148923E-01  3.320511E-02
       120  1.913757E-03 -1.425145E-01  3.689429E-02
       121  3.806670E-03 -1.421569E-01  3.689439E-02
       122  5.699582E-03 -1.425145E-01  3.689429E-02
       123  3.806670E-03 -1.722925E-01  4.058452E-02
       124  1.913778E-03 -2.056525E-01  4.427441E-02
       125  3.806670E-03 -2.052946E-01  4.427414E-02
       126  5.699562E-03 -2.056525E-01  4.427441E-02
       127  3.806670E-03 -2.411721E-01  4.796271E-02
       128  1.913465E-03 -2.802623E-01  5.165086E-02
       129  3.806670E-03 -2.799027E-01  5.165175E-02
       130  5.699875E-03 -2.802623E-01  5.165086E-02
       131  3.806670E-03 -3.215534E-01  5.535219E-02
       132  1.027925E-02  3.606909E-03  6.559447E-03
       133  8.918066E-03 -3.528756E-03  1.024891E-02
       134  1.027925E-02 -6.980661E-04  1.311889E-02
       135  1.179497E-02  2.850321E-03  1.598888E-02
       136  1.027925E-02 -7.873027E-03  1.967835E-02
       137  8.918067E-03 -2.074866E-02  2.049782E-02
       138  1.027925E-02 -1.791797E-02  2.623780E-02
       139  1.179497E-02 -1.436958E-02  3.197775E-02
       140  1.027925E-02 -3.083290E-02  3.279723E-02
       141  8.918064E-03 -4.944851E-02  3.074675E-02
       142  1.027924E-02 -4.661781E-02  3.935666E-02
       143  1.179496E-02 -4.306941E-02  4.796666E-02
       144  1.027926E-02 -6.527271E-02  4.591616E-02
       145  8.918062E-03 -8.962826E-02  4.099558E-02
       146  1.027923E-02 -8.679757E-02  5.247563E-02
       147  1.179496E-02 -8.324920E-02  6.395544E-02
       148  1.027926E-02 -1.111924E-01  5.903499E-02
       149  8.917907E-03 -1.412881E-01  5.124474E-02
       150  1.027892E-02 -1.384573E-01  6.559422E-02
       151  1.179478E-02 -1.349088E-01  7.994459E-02
       152  1.027950E-02 -1.685921E-01  7.215419E-02
       153  8.917292E-03 -2.044271E-01  6.149288E-02
       154  1.027793E-02 -2.015969E-01  7.871472E-02
       155  1.179417E-02 -1.980492E-01  9.593262E-02
       156  1.028078E-02 -2.374716E-01  8.527110E-02
       157  8.914837E-03 -2.790427E-01  7.174682E-02
       158  1.027219E-02 -2.762167E-01  9.183296E-02
       159  1.179163E-02 -2.726743E-01  1.119270E-01
       160  1.028701E-02 -3.178306E-01  9.837819E-02
       161  3.806670E-03  1.306041E-02  9.429431E-03
       162  8.578170E-03  8.397217E-03  1.885886E-02
       163  3.806670E-03  8.755436E-03  1.885886E-02
       164 -9.648304E-04  8.397217E-03  1.885886E-02
       165  3.806670E-03  1.580479E-03  2.828830E-02
       166  8.578172E-03 -8.822689E-03  3.771773E-02
       167  3.806670E-03 -8.464472E-03  3.771773E-02
       168 -9.648326E-04 -8.822689E-03  3.771773E-02
       169  3.806670E-03 -2.137940E-02  4.714715E-02
       170  8.578169E-03 -3.752253E-02  5.657656E-02
       171  3.806670E-03 -3.716432E-02  5.657657E-02
       172 -9.648294E-04 -3.752253E-02  5.657656E-02
       173  3.806670E-03 -5.581917E-02  6.600605E-02
       174  8.578184E-03 -7.770234E-02  7.543555E-02
       175  3.806670E-03 -7.734417E-02  7.543550E-02
       176 -9.648446E-04 -7.770234E-02  7.543555E-02
       177  3.806670E-03 -1.017390E-01  8.486480E-02
       178  8.578117E-03 -1.293621E-01  9.429392E-02
       179  3.806670E-03 -1.290042E-01  9.429403E-02
       180 -9.647769E-04 -1.293621E-01  9.429392E-02
       181  3.806670E-03 -1.591381E-01  1.037242E-01
       182  8.578081E-03 -1.925037E-01  1.131542E-01
       183  3.806670E-03 -1.921461E-01  1.131539E-01
       184 -9.647412E-04 -1.925037E-01  1.131542E-01
       185  3.806670E-03 -2.280175E-01  1.225823E-01
       186  8.578417E-03 -2.671353E-01  1.320102E-01
       187  3.806670E-03 -2.667797E-01  1.320111E-01
       188 -9.650773E-04 -2.671353E-01  1.320102E-01
       189  3.806670E-03 -3.083517E-01  1.414539E-01
       190 -2.665910E-03  3.606909E-03  6.559447E-03
       191 -4.181626E-03  2.850321E-03  1.598888E-02
       192 -2.665909E-03 -6.980661E-04  1.311889E-02
       193 -1.304726E-03 -3.528756E-03  1.024891E-02
       194 -2.665911E-03 -7.873027E-03  1.967835E-02
       195 -4.181627E-03 -1.436958E-02  3.197775E-02
       196 -2.665910E-03 -1.791797E-02  2.623780E-02
       197 -1.304727E-03 -2.074866E-02  2.049782E-02
       198 -2.665910E-03 -3.083290E-02  3.279723E-02
       199 -4.181623E-03 -4.306941E-02  4.796666E-02
       200 -2.665896E-03 -4.661781E-02  3.935666E-02
       201 -1.304725E-03 -4.944851E-02  3.074675E-02
       202 -2.665919E-03 -6.527271E-02  4.591616E-02
       203 -4.181619E-03 -8.324920E-02  6.395544E-02
       204 -2.665891E-03 -8.679757E-02  5.247563E-02
       205 -1.304723E-03 -8.962826E-02  4.099558E-02
       206 -2.665923E-03 -1.111924E-01  5.903499E-02
       207 -4.181442E-03 -1.349088E-01  7.994459E-02
       208 -2.665582E-03 -1.384573E-01  6.559422E-02
       209 -1.304567E-03 -1.412881E-01  5.124474E-02
       210 -2.666163E-03 -1.685921E-01  7.215419E-02
       211 -4.180826E-03 -1.980492E-01  9.593262E-02
       212 -2.664588E-03 -2.015969E-01  7.871472E-02
       213 -1.303952E-03 -2.044271E-01  6.149288E-02
       214 -2.667442E-03 -2.374716E-01  8.527110E-02
       215 -4.178287E-03 -2.726743E-01  1.119270E-01
       216 -2.658848E-03 -2.762167E-01  9.183296E-02
       217 -1.301498E-03 -2.790427E-01  7.174682E-02
       218 -2.673668E-03 -3.178306E-01  9.837819E-02
       219  3.806670E-03  5.040710E-03  6.559447E-03
       220  3.806670E-03 -2.153968E-03  1.024891E-02
       221  5.692121E-04  3.774448E-04  1.311889E-02
       222  3.806670E-03  7.357349E-04  1.311889E-02
       223  7.044128E-03  3.774448E-04  1.311889E-02
       224  3.806670E-03  4.346790E-03  1.598888E-02
       225  3.806670E-03 -6.439226E-03  1.967834E-02
       226  3.806670E-03 -1.937387E-02  2.049782E-02
       227  5.692120E-04 -1.684246E-02  2.623780E-02
       228  3.806670E-03 -1.648417E-02  2.623780E-02
       229  7.044128E-03 -1.684246E-02  2.623780E-02
       230  3.806670E-03 -1.287312E-02  3.197776E-02
       231  3.806670E-03 -2.939910E-02  3.279723E-02
       232  3.806670E-03 -4.807371E-02  3.074675E-02
       233  5.692168E-04 -4.554229E-02  3.935667E-02
       234  3.806670E-03 -4.518400E-02  3.935668E-02
       235  7.044123E-03 -4.554229E-02  3.935667E-02
       236  3.806670E-03 -4.157295E-02  4.796665E-02
       237  3.806670E-03 -6.383891E-02  4.591615E-02
       238  3.806670E-03 -8.825343E-02  4.099562E-02
       239  5.692292E-04 -8.572206E-02  5.247566E-02
       240  3.806670E-03 -8.536377E-02  5.247571E-02
       241  7.044110E-03 -8.572206E-02  5.247566E-02
       242  3.806670E-03 -8.175277E-02  6.395549E-02
       243  3.806670E-03 -1.097586E-01  5.903493E-02
       244  3.806670E-03 -1.399131E-01  5.124482E-02
       245  5.693477E-04 -1.373818E-01  6.559442E-02
       246  3.806670E-03 -1.370235E-01  6.559455E-02
       247  7.043992E-03 -1.373818E-01  6.559442E-02
       248  3.806670E-03 -1.334126E-01  7.994469E-02
       249  3.806670E-03 -1.671583E-01  7.215389E-02
       250  3.806670E-03 -2.030516E-01  6.149351E-02
       251  5.699936E-04 -2.005214E-01  7.871506E-02
       252  3.806670E-03 -2.001631E-01  7.871562E-02
       253  7.043346E-03 -2.005214E-01  7.871506E-02
       254  3.806670E-03 -1.965535E-01  9.593323E-02
       255  3.806670E-03 -2.360379E-01  8.527012E-02
       256  3.806670E-03 -2.776663E-01  7.174559E-02
       257  5.722504E-04 -2.751413E-01  9.183203E-02
       258  3.806670E-03 -2.747830E-01  9.183059E-02
       259  7.041089E-03 -2.751413E-01  9.183203E-02
       260  3.806670E-03 -2.711797E-01  1.119258E-01
       261  3.806670E-03 -3.163968E-01  9.838086E-02

 stresses (elem, integ.pnt.,sxx,syy,szz,sxy,sxz,syz) for set EALL and time  0.1000000E+01

         1   1 -3.994632E+00 -4.005939E+00 -2.102409E+01  4.649660E+00 -1.387342E-05  2.629025E-04
         1   2 -1.269560E+01  4.005849E+00 -2.123085E+01  5.662996E+00  6.167035E-05  1.596433E-04
         1   3  4.430239E+00 -1.259320E+01  1.705512E+01  5.321613E+00 -2.971409E-05 -1.486558E-04
         1   4  1.344251E+01  1.259279E+01  2.731455E+01  1.539895E+00 -2.773924E-05 -1.651395E-04
         1   5 -3.994556E+00 -4.006082E+00 -2.102404E+01  4.649743E+00 -2.295148E-04  3.515241E-04
         1   6 -1.269580E+01  4.005609E+00 -2.123100E+01  5.662975E+00  1.352189E-04  4.179137E-04
         1   7  4.430324E+00 -1.259259E+01  1.705515E+01  5.321751E+00  6.199359E-05 -4.765026E-04
         1   8  1.344262E+01  1.259328E+01  2.731469E+01  1.539923E+00 -6.913767E-07 -3.324199E-04
         2   1 -1.269560E+01  4.005849E+00 -2.123085E+01 -5.662996E+00 -6.167051E-05  1.596432E-04
         2   2 -3.994632E+00 -4.005939E+00 -2.102409E+01 -4.649660E+00  1.387307E-05  2.629020E-04
         2   3  1.344251E+01  1.259279E+01  2.731455E+01 -1.539895E+00  2.773922E-05 -1.651395E-04
         2   4  4.430239E+00 -1.259320E+01  1.705512E+01 -5.321613E+00  2.971413E-05 -1.486559E-04
         2   5 -1.269580E+01  4.005609E+00 -2.123100E+01 -5.662975E+00 -1.352193E-04  4.179138E-04
         2   6 -3.994556E+00 -4.006082E+00 -2.102404E+01 -4.649743E+00  2.295147E-04  3.515241E-04
         2   7  1.344262E+01  1.259328E+01  2.731469E+01 -1.539923E+00  6.912980E-07 -3.324200E-04
         2   8  4.430324E+00 -1.259259E+01  1.705515E+01 -5.321751E+00 -6.199357E-05 -4.765029E-04
         3   1  3.240153E+00 -1.225178E+01  1.439631E+01 -5.662963E+00 -3.501691E-05  5.502901E-05
         3   2  1.140208E+01  1.225151E+01  2.419583E+01 -1.881247E+00 -2.738054E-05  6.253031E-05
         3   3 -3.675737E+00 -3.664585E+00 -2.018182E+01 -4.308315E+00 -2.658599E-05 -1.565232E-04
         3   4 -1.214888E+01  3.664506E+00 -2.052504E+01 -5.321648E+00  4.288914E-05 -6.978369E-05
         3   5  3.240118E+00 -1.225149E+01  1.439624E+01 -5.663099E+00  6.444260E-05  5.371920E-04
         3   6  1.140207E+01  1.225168E+01  2.419587E+01 -1.881268E+00  5.255064E-06  4.182897E-04
         3   7 -3.675729E+00 -3.664724E+00 -2.018177E+01 -4.308376E+00 -1.521808E-04 -4.176876E-04
         3   8 -1.214906E+01  3.664246E+00 -2.052513E+01 -5.321620E+00  1.177729E-04 -4.983065E-04
         4   1  1.140208E+01  1.225151E+01  2.419583E+01  1.881247E+00  2.738057E-05  6.253028E-05
         4   2  3.240153E+00 -1.225178E+01  1.439631E+01  5.662963E+00  3.501695E-05  5.502893E-05
         4   3 -1.214888E+01  3.664506E+00 -2.052504E+01  5.321648E+00 -4.288910E-05 -6.978370E-05
         4   4 -3.675737E+00 -3.664585E+00 -2.018182E+01  4.308315E+00  2.658600E-05 -1.565233E-04
         4   5  1.140207E+01  1.225168E+01  2.419587E+01  1.881268E+00 -5.255038E-06  4.182896E-04
         4   6  3.240118E+00 -1.225149E+01  1.439624E+01  5.663099E+00 -6.444263E-05  5.371917E-04
         4   7 -1.214906E+01  3.664246E+00 -2.052513E+01  5.321620E+00 -1.177727E-04 -4.983065E-04
         4   8 -3.675729E+00 -3.664724E+00 -2.018177E+01  4.308376E+00  1.521809E-04 -4.176877E-04
         5   1 -3.994918E+00 -4.005639E+00 -2.102404E+01  4.649552E+00  2.139899E-04 -1.301318E-05
         5   2 -1.269581E+01  4.006238E+00 -2.123051E+01  5.662924E+00  6.117793E-05 -1.719004E-04
         5   3  4.430265E+00 -1.259261E+01  1.705497E+01  5.321546E+00 -6.804337E-05 -8.119661E-05
         5   4  1.344244E+01  1.259324E+01  2.731431E+01  1.539868E+00 -2.820469E-05 -1.669789E-04
         5   5 -3.994468E+00 -4.004188E+00 -2.102373E+01  4.649869E+00  2.434049E-04 -1.944082E-03
         5   6 -1.269513E+01  4.006969E+00 -2.123071E+01  5.663236E+00 -6.248452E-04 -1.338036E-03
         5   7  4.430049E+00 -1.259362E+01  1.705458E+01  5.321544E+00  1.094016E-04  1.823964E-03
         5   8  1.344236E+01  1.259244E+01  2.731463E+01  1.539937E+00  1.994185E-04  1.768508E-03
         6   1 -1.269581E+01  4.006238E+00 -2.123051E+01 -5.662924E+00 -6.117824E-05 -1.719004E-04
         6   2 -3.994918E+00 -4.005639E+00 -2.102404E+01 -4.649552E+00 -2.139900E-04 -1.301332E-05
         6   3  1.344244E+01  1.259324E+01  2.731431E+01 -1.539868E+00  2.820459E-05 -1.669789E-04
         6   4  4.430265E+00 -1.259261E+01  1.705497E+01 -5.321546E+00  6.804334E-05 -8.119686E-05
         6   5 -1.269513E+01  4.006969E+00 -2.123071E+01 -5.663236E+00  6.248448E-04 -1.338036E-03
         6   6 -3.994468E+00 -4.004188E+00 -2.102373E+01 -4.649869E+00 -2.434050E-04 -1.944082E-03
         6   7  1.344236E+01  1.259244E+01  2.731463E+01 -1.539937E+00 -1.994186E-04  1.768507E-03
         6   8  4.430049E+00 -1.259362E+01  1.705458E+01 -5.321544E+00 -1.094016E-04  1.823964E-03
         7   1  3.240215E+00 -1.225108E+01  1.439615E+01 -5.662906E+00 -6.712115E-05 -5.310209E-05
         7   2  1.140207E+01  1.225212E+01  2.419559E+01 -1.881221E+00 -2.779680E-05  1.721866E-05
         7   3 -3.675893E+00 -3.664119E+00 -2.018173E+01 -4.308218E+00  1.277622E-04  1.547429E-04
         7   4 -1.214895E+01  3.665053E+00 -2.052474E+01 -5.321573E+00  3.557348E-05  3.142324E-04
         7   5  3.239904E+00 -1.225230E+01  1.439575E+01 -5.662848E+00  1.176013E-04 -1.466994E-03
         7   6  1.140181E+01  1.225093E+01  2.419580E+01 -1.881278E+00  1.773668E-04 -1.404441E-03
         7   7 -3.675714E+00 -3.663695E+00 -2.018149E+01 -4.308485E+00  2.469248E-04  1.520744E-03
         7   8 -1.214864E+01  3.664905E+00 -2.052484E+01 -5.321873E+00 -4.841746E-04  1.040341E-03
         8   1  1.140207E+01  1.225212E+01  2.419559E+01  1.881221E+00  2.779679E-05  1.721863E-05
         8   2  3.240215E+00 -1.225108E+01  1.439615E+01  5.662906E+00  6.712115E-05 -5.310228E-05
         8   3 -1.214895E+01  3.665053E+00 -2.052474E+01  5.321573E+00 -3.557332E-05  3.142324E-04
         8   4 -3.675893E+00 -3.664119E+00 -2.018173E+01  4.308218E+00 -1.277622E-04  1.547428E-04
         8   5  1.140181E+01  1.225093E+01  2.419580E+01  1.881278E+00 -1.773668E-04 -1.404442E-03
         8   6  3.239904E+00 -1.225230E+01  1.439575E+01  5.662848E+00 -1.176013E-04 -1.466994E-03
         8   7 -1.214864E+01  3.664905E+00 -2.052484E+01  5.321873E+00  4.841748E-04  1.040341E-03
         8   8 -3.675714E+00 -3.663695E+00 -2.018149E+01  4.308485E+00 -2.469247E-04  1.520744E-03
         9   1 -3.994774E+00 -4.008302E+00 -2.102472E+01  4.649332E+00  6.967982E-05  1.094911E-03
         9   2 -1.269538E+01  4.004488E+00 -2.123111E+01  5.662684E+00  2.081495E-05  2.023835E-04
         9   3  4.430461E+00 -1.259486E+01  1.705601E+01  5.321555E+00 -3.275849E-04  2.001508E-04
         9   4  1.344247E+01  1.259136E+01  2.731427E+01  1.539818E+00 -2.094826E-04 -1.703864E-04
         9   5 -3.993146E+00 -4.008833E+00 -2.102403E+01  4.650637E+00 -2.103053E-03  4.579226E-03
         9   6 -1.269751E+01  4.001836E+00 -2.123324E+01  5.663604E+00  1.476597E-03  5.835964E-03
         9   7  4.430050E+00 -1.258990E+01  1.705548E+01  5.322760E+00  1.043943E-03 -6.165682E-03
         9   8  1.344351E+01  1.259565E+01  2.731707E+01  1.540275E+00  2.120192E-04 -4.441102E-03
        10   1 -1.269538E+01  4.004488E+00 -2.123111E+01 -5.662684E+00 -2.081525E-05  2.023835E-04
        10   2 -3.994774E+00 -4.008302E+00 -2.102472E+01 -4.649332E+00 -6.967997E-05  1.094911E-03
        10   3  1.344247E+01  1.259136E+01  2.731427E+01 -1.539818E+00  2.094825E-04 -1.703865E-04
        10   4  4.430461E+00 -1.259486E+01  1.705601E+01 -5.321555E+00  3.275849E-04  2.001506E-04
        10   5 -1.269751E+01  4.001836E+00 -2.123324E+01 -5.663604E+00 -1.476597E-03  5.835964E-03
        10   6 -3.993146E+00 -4.008833E+00 -2.102403E+01 -4.650637E+00  2.103053E-03  4.579226E-03
        10   7  1.344351E+01  1.259565E+01  2.731707E+01 -1.540275E+00 -2.120192E-04 -4.441102E-03
        10   8  4.430050E+00 -1.258990E+01  1.705548E+01 -5.322760E+00 -1.043943E-03 -6.165682E-03
        11   1  3.240639E+00 -1.225282E+01  1.439749E+01 -5.662958E+00 -3.449634E-04 -5.573203E-04
        11   2  1.140238E+01  1.225083E+01  2.419600E+01 -1.881197E+00 -2.083246E-04 -2.781633E-04
        11   3 -3.675717E+00 -3.666146E+00 -2.018247E+01 -4.308079E+00 -2.237865E-05 -6.126627E-04
        11   4 -1.214861E+01  3.663799E+00 -2.052547E+01 -5.321405E+00 -1.148927E-05  1.210905E-04
        11   5  3.239096E+00 -1.225089E+01  1.439596E+01 -5.664064E+00  1.035181E-03  6.258055E-03
        11   6  1.140210E+01  1.225182E+01  2.419753E+01 -1.881538E+00  2.782391E-04  4.789437E-03
        11   7 -3.674961E+00 -3.667140E+00 -2.018186E+01 -4.309080E+00 -1.468493E-03 -4.803795E-03
        11   8 -1.215078E+01  3.660744E+00 -2.052691E+01 -5.322086E+00  1.307437E-03 -6.052101E-03
        12   1  1.140238E+01  1.225083E+01  2.419600E+01  1.881197E+00  2.083246E-04 -2.781633E-04
        12   2  3.240639E+00 -1.225282E+01  1.439749E+01  5.662958E+00  3.449634E-04 -5.573205E-04
        12   3 -1.214861E+01  3.663799E+00 -2.052547E+01  5.321405E+00  1.148944E-05  1.210905E-04
        12   4 -3.675717E+00 -3.666146E+00 -2.018247E+01  4.308079E+00  2.237871E-05 -6.126628E-04
        12   5  1.140210E+01  1.225182E+01  2.419753E+01  1.881538E+00 -2.782391E-04  4.789437E-03
        12   6  3.239096E+00 -1.225089E+01  1.439596E+01  5.664064E+00 -1.035181E-03  6.258055E-03
        12   7 -1.215078E+01  3.660744E+00 -2.052691E+01  5.322086E+00 -1.307437E-03 -6.052101E-03
        12   8 -3.674961E+00 -3.667140E+00 -2.018186E+01  4.309080E+00  1.468493E-03 -4.803795E-03
        13   1 -3.996803E+00 -4.001604E+00 -2.102333E+01  4.647679E+00  1.921216E-03 -1.755349E-04
        13   2 -1.269622E+01  4.012442E+00 -2.122651E+01  5.661881E+00  7.129894E-04 -3.006493E-03
        13   3  4.431370E+00 -1.258797E+01  1.705448E+01  5.320265E+00 -1.643223E-03 -9.891834E-04
        13   4  1.344174E+01  1.259658E+01  2.731014E+01  1.539391E+00 -8.401476E-04 -2.254672E-03
        13   5 -3.997217E+00 -3.989444E+00 -2.102294E+01  4.654023E+00  3.538755E-03 -2.215460E-02
        13   6 -1.269328E+01  4.013226E+00 -2.123047E+01  5.665211E+00 -5.269202E-03 -1.286055E-02
        13   7  4.426603E+00 -1.260174E+01  1.704844E+01  5.322618E+00  3.753775E-03  2.190891E-02
        13   8  1.343878E+01  1.258437E+01  2.731993E+01  1.540691E+00  3.767781E-03  2.303065E-02
        14   1 -1.269622E+01  4.012442E+00 -2.122651E+01 -5.661881E+00 -7.129897E-04 -3.006493E-03
        14   2 -3.996803E+00 -4.001604E+00 -2.102333E+01 -4.647679E+00 -1.921216E-03 -1.755349E-04
        14   3  1.344174E+01  1.259658E+01  2.731014E+01 -1.539391E+00  8.401475E-04 -2.254672E-03
        14   4  4.431370E+00 -1.258797E+01  1.705448E+01 -5.320265E+00  1.643223E-03 -9.891836E-04
        14   5 -1.269328E+01  4.013226E+00 -2.123047E+01 -5.665211E+00  5.269202E-03 -1.286055E-02
        14   6 -3.997217E+00 -3.989444E+00 -2.102294E+01 -4.654023E+00 -3.538756E-03 -2.215460E-02
        14   7  1.343878E+01  1.258437E+01  2.731993E+01 -1.540691E+00 -3.767781E-03  2.303065E-02
        14   8  4.426603E+00 -1.260174E+01  1.704844E+01 -5.322618E+00 -3.753775E-03  2.190891E-02
        15   1  3.241648E+00 -1.224527E+01  1.439549E+01 -5.661775E+00 -1.595960E-03  1.915960E-04
        15   2  1.140196E+01  1.225716E+01  2.419146E+01 -1.880804E+00 -8.044102E-04  1.311896E-03
        15   3 -3.676638E+00 -3.659159E+00 -2.018056E+01 -4.306666E+00  1.148846E-03  1.209699E-03
        15   4 -1.214846E+01  3.671951E+00 -2.052116E+01 -5.320623E+00  4.398523E-04  3.712695E-03
        15   5  3.236740E+00 -1.225908E+01  1.438997E+01 -5.663296E+00  3.665483E-03 -1.921651E-02
        15   6  1.139808E+01  1.224299E+01  2.420022E+01 -1.881909E+00  3.375241E-03 -2.006558E-02
        15   7 -3.679296E+00 -3.655929E+00 -2.018097E+01 -4.311648E+00  3.563377E-03  1.829098E-02
        15   8 -1.214840E+01  3.665788E+00 -2.052418E+01 -5.323629E+00 -4.154875E-03  1.106670E-02
        16   1  1.140196E+01  1.225716E+01  2.419146E+01  1.880804E+00  8.044102E-04  1.311896E-03
        16   2  3.241648E+00 -1.224527E+01  1.439549E+01  5.661775E+00  1.595960E-03  1.915959E-04
        16   3 -1.214846E+01  3.671951E+00 -2.052116E+01  5.320623E+00 -4.398521E-04  3.712695E-03
        16   4 -3.676638E+00 -3.659159E+00 -2.018056E+01  4.306666E+00 -1.148846E-03  1.209699E-03
        16   5  1.139808E+01  1.224299E+01  2.420022E+01  1.881909E+00 -3.375241E-03 -2.006558E-02
        16   6  3.236740E+00 -1.225908E+01  1.438997E+01  5.663296E+00 -3.665483E-03 -1.921651E-02
        16   7 -1.214840E+01  3.665788E+00 -2.052418E+01  5.323629E+00  4.154875E-03  1.106670E-02
        16   8 -3.679296E+00 -3.655929E+00 -2.018097E+01  4.311648E+00 -3.563377E-03  1.829098E-02
        17   1 -3.988016E+00 -4.026131E+00 -2.102407E+01  4.642533E+00 -3.574324E-03  9.388200E-03
        17   2 -1.268622E+01  3.999356E+00 -2.123136E+01  5.657040E+00 -1.581141E-03 -6.446148E-03
        17   3  4.439638E+00 -1.261118E+01  1.706707E+01  5.319270E+00 -9.488387E-03  2.170142E-03
        17   4  1.344321E+01  1.257568E+01  2.729952E+01  1.538223E+00 -4.927942E-03 -3.948555E-03
        17   5 -3.999068E+00 -4.066722E+00 -2.104621E+01  4.665821E+00 -6.966995E-03  6.951856E-02
        17   6 -1.274296E+01  3.929098E+00 -2.126670E+01  5.682351E+00  1.964548E-02  9.806439E-02
        17   7  4.399804E+00 -1.258576E+01  1.705937E+01  5.333013E+00  2.930483E-02 -6.797078E-02
        17   8  1.343989E+01  1.260220E+01  2.737482E+01  1.546219E+00  1.153729E-02 -4.701369E-02
        18   1 -1.268622E+01  3.999356E+00 -2.123136E+01 -5.657040E+00  1.581140E-03 -6.446148E-03
        18   2 -3.988016E+00 -4.026131E+00 -2.102407E+01 -4.642533E+00  3.574324E-03  9.388200E-03
        18   3  1.344321E+01  1.257568E+01  2.729952E+01 -1.538223E+00  4.927942E-03 -3.948555E-03
        18   4  4.439638E+00 -1.261118E+01  1.706707E+01 -5.319270E+00  9.488387E-03  2.170142E-03
        18   5 -1.274296E+01  3.929098E+00 -2.126670E+01 -5.682351E+00 -1.964548E-02  9.806439E-02
        18   6 -3.999068E+00 -4.066722E+00 -2.104621E+01 -4.665821E+00  6.966995E-03  6.951856E-02
        18   7  1.343989E+01  1.260220E+01  2.737482E+01 -1.546219E+00 -1.153729E-02 -4.701369E-02
        18   8  4.399804E+00 -1.258576E+01  1.705937E+01 -5.333013E+00 -2.930483E-02 -6.797078E-02
        19   1  3.251754E+00 -1.226469E+01  1.441177E+01 -5.661462E+00 -9.198007E-03 -3.898664E-03
        19   2  1.140627E+01  1.224132E+01  2.418704E+01 -1.879948E+00 -4.714974E-03  8.909906E-04
        19   3 -3.668609E+00 -3.678868E+00 -2.018255E+01 -4.303156E+00 -4.029423E-03 -5.491518E-03
        19   4 -1.214014E+01  3.661865E+00 -2.052741E+01 -5.317048E+00 -1.638803E-03  7.335554E-03
        19   5  3.202720E+00 -1.226571E+01  1.439344E+01 -5.673209E+00  2.844591E-02  6.496238E-02
        19   6  1.138920E+01  1.223704E+01  2.424529E+01 -1.886233E+00  1.189903E-02  4.665919E-02
        19   7 -3.683158E+00 -3.715130E+00 -2.020346E+01 -4.321178E+00 -3.129538E-03 -6.929707E-02
        19   8 -1.219220E+01  3.599280E+00 -2.055655E+01 -5.337283E+00  1.749129E-02 -9.492297E-02
        20   1  1.140627E+01  1.224132E+01  2.418704E+01  1.879948E+00  4.714974E-03  8.909906E-04
        20   2  3.251754E+00 -1.226469E+01  1.441177E+01  5.661462E+00  9.198007E-03 -3.898664E-03
        20   3 -1.214014E+01  3.661865E+00 -2.052741E+01  5.317048E+00  1.638803E-03  7.335554E-03
        20   4 -3.668609E+00 -3.678868E+00 -2.018255E+01  4.303156E+00  4.029423E-03 -5.491518E-03
        20   5  1.138920E+01  1.223704E+01  2.424529E+01  1.886233E+00 -1.189903E-02  4.665919E-02
        20   6  3.202720E+00 -1.226571E+01  1.439344E+01  5.673209E+00 -2.844591E-02  6.496238E-02
        20   7 -1.219220E+01  3.599280E+00 -2.055655E+01  5.337283E+00 -1.749129E-02 -9.492297E-02
        20   8 -3.683158E+00 -3.715130E+00 -2.020346E+01  4.321178E+00  3.129538E-03 -6.929707E-02
        21   1 -3.949383E+00 -3.875424E+00 -2.095373E+01  4.609647E+00 -8.381128E-03 -4.017539E-02