    1C
    1UModel: beam     Date: 10-Mar-1998                                 
    1UUSER                                                              
    1UDATE              24.november.2019                                
    1UTIME              19:35:44                                        
    1UHOST                                                              
    1UPGM               CalculiX                                        
    1UVERSION           Version 2.16                             
    1UCOMPILETIME       So 24. Nov 18:30:58 CET 2019                    
    1UDIR                                                               
    1UDBN                                                               
    1UMAT    1EL                                                        
    2C                           261                                     1
 -1         1 0.00000E+00 0.00000E+00 0.00000E+00
 -1         2 1.00000E+00 0.00000E+00 0.00000E+00
 -1         3 1.00000E+00 1.00000E+00 0.00000E+00
 -1         4 0.00000E+00 1.00000E+00 0.00000E+00
 -1         5 0.00000E+00 0.00000E+00 8.00000E+00
 -1         6 1.00000E+00 0.00000E+00 8.00000E+00
 -1         7 1.00000E+00 1.00000E+00 8.00000E+00
 -1         8 0.00000E+00 1.00000E+00 8.00000E+00
 -1         9 2.50000E-01 0.00000E+00 0.00000E+00
 -1        10 5.00000E-01 0.00000E+00 0.00000E+00
 -1        11 7.50000E-01 0.00000E+00 0.00000E+00
 -1        12 1.00000E+00 2.50000E-01 0.00000E+00
 -1        13 1.00000E+00 5.00000E-01 0.00000E+00
 -1        14 1.00000E+00 7.50000E-01 0.00000E+00
 -1        15 7.50000E-01 1.00000E+00 0.00000E+00
 -1        16 5.00000E-01 1.00000E+00 0.00000E+00
 -1        17 2.50000E-01 1.00000E+00 0.00000E+00
 -1        18 0.00000E+00 7.50000E-01 0.00000E+00
 -1        19 0.00000E+00 5.00000E-01 0.00000E+00
 -1        20 0.00000E+00 2.50000E-01 0.00000E+00
 -1        21 2.50000E-01 0.00000E+00 8.00000E+00
 -1        22 5.00000E-01 0.00000E+00 8.00000E+00
 -1        23 7.50000E-01 0.00000E+00 8.00000E+00
 -1        24 1.00000E+00 2.50000E-01 8.00000E+00
 -1        25 1.00000E+00 5.00000E-01 8.00000E+00
 -1        26 1.00000E+00 7.50000E-01 8.00000E+00
 -1        27 7.50000E-01 1.00000E+00 8.00000E+00
 -1        28 5.00000E-01 1.00000E+00 8.00000E+00
 -1        29 2.50000E-01 1.00000E+00 8.00000E+00
 -1        30 0.00000E+00 7.50000E-01 8.00000E+00
 -1        31 0.00000E+00 5.00000E-01 8.00000E+00
 -1        32 0.00000E+00 2.50000E-01 8.00000E+00
 -1        33 1.00000E+00 0.00000E+00 5.00000E-01
 -1        34 1.00000E+00 0.00000E+00 1.00000E+00
 -1        35 1.00000E+00 0.00000E+00 1.50000E+00
 -1        36 1.00000E+00 0.00000E+00 2.00000E+00
 -1        37 1.00000E+00 0.00000E+00 2.50000E+00
 -1        38 1.00000E+00 0.00000E+00 3.00000E+00
 -1        39 1.00000E+00 0.00000E+00 3.50000E+00
 -1        40 1.00000E+00 0.00000E+00 4.00000E+00
 -1        41 1.00000E+00 0.00000E+00 4.50000E+00
 -1        42 1.00000E+00 0.00000E+00 5.00000E+00
 -1        43 1.00000E+00 0.00000E+00 5.50000E+00
 -1        44 1.00000E+00 0.00000E+00 6.00000E+00
 -1        45 1.00000E+00 0.00000E+00 6.50000E+00
 -1        46 1.00000E+00 0.00000E+00 7.00000E+00
 -1        47 1.00000E+00 0.00000E+00 7.50000E+00
 -1        48 0.00000E+00 0.00000E+00 7.50000E+00
 -1        49 0.00000E+00 0.00000E+00 7.00000E+00
 -1        50 0.00000E+00 0.00000E+00 6.50000E+00
 -1        51 0.00000E+00 0.00000E+00 6.00000E+00
 -1        52 0.00000E+00 0.00000E+00 5.50000E+00
 -1        53 0.00000E+00 0.00000E+00 5.00000E+00
 -1        54 0.00000E+00 0.00000E+00 4.50000E+00
 -1        55 0.00000E+00 0.00000E+00 4.00000E+00
 -1        56 0.00000E+00 0.00000E+00 3.50000E+00
 -1        57 0.00000E+00 0.00000E+00 3.00000E+00
 -1        58 0.00000E+00 0.00000E+00 2.50000E+00
 -1        59 0.00000E+00 0.00000E+00 2.00000E+00
 -1        60 0.00000E+00 0.00000E+00 1.50000E+00
 -1        61 0.00000E+00 0.00000E+00 1.00000E+00
 -1        62 0.00000E+00 0.00000E+00 5.00000E-01
 -1        63 1.00000E+00 1.00000E+00 5.00000E-01
 -1        64 1.00000E+00 1.00000E+00 1.00000E+00
 -1        65 1.00000E+00 1.00000E+00 1.50000E+00
 -1        66 1.00000E+00 1.00000E+00 2.00000E+00
 -1        67 1.00000E+00 1.00000E+00 2.50000E+00
 -1        68 1.00000E+00 1.00000E+00 3.00000E+00
 -1        69 1.00000E+00 1.00000E+00 3.50000E+00
 -1        70 1.00000E+00 1.00000E+00 4.00000E+00
 -1        71 1.00000E+00 1.00000E+00 4.50000E+00
 -1        72 1.00000E+00 1.00000E+00 5.00000E+00
 -1        73 1.00000E+00 1.00000E+00 5.50000E+00
 -1        74 1.00000E+00 1.00000E+00 6.00000E+00
 -1        75 1.00000E+00 1.00000E+00 6.50000E+00
 -1        76 1.00000E+00 1.00000E+00 7.00000E+00
 -1        77 1.00000E+00 1.00000E+00 7.50000E+00
 -1        78 0.00000E+00 1.00000E+00 5.00000E-01
 -1        79 0.00000E+00 1.00000E+00 1.00000E+00
 -1        80 0.00000E+00 1.00000E+00 1.50000E+00
 -1        81 0.00000E+00 1.00000E+00 2.00000E+00
 -1        82 0.00000E+00 1.00000E+00 2.50000E+00
 -1        83 0.00000E+00 1.00000E+00 3.00000E+00
 -1        84 0.00000E+00 1.00000E+00 3.50000E+00
 -1        85 0.00000E+00 1.00000E+00 4.00000E+00
 -1        86 0.00000E+00 1.00000E+00 4.50000E+00
 -1        87 0.00000E+00 1.00000E+00 5.00000E+00
 -1        88 0.00000E+00 1.00000E+00 5.50000E+00
 -1        89 0.00000E+00 1.00000E+00 6.00000E+00
 -1        90 0.00000E+00 1.00000E+00 6.50000E+00
 -1        91 0.00000E+00 1.00000E+00 7.00000E+00
 -1        92 0.00000E+00 1.00000E+00 7.50000E+00
 -1        93 5.00000E-01 2.50000E-01 0.00000E+00
 -1        94 2.50000E-01 5.00000E-01 0.00000E+00
 -1        95 5.00000E-01 5.00000E-01 0.00000E+00
 -1        96 7.50000E-01 5.00000E-01 0.00000E+00
 -1        97 5.00000E-01 7.50000E-01 0.00000E+00
 -1        98 5.00000E-01 2.50000E-01 8.00000E+00
 -1        99 2.50000E-01 5.00000E-01 8.00000E+00
 -1       100 5.00000E-01 5.00000E-01 8.00000E+00
 -1       101 7.50000E-01 5.00000E-01 8.00000E+00
 -1       102 5.00000E-01 7.50000E-01 8.00000E+00
 -1       103 5.00000E-01 0.00000E+00 5.00000E-01
 -1       104 2.50000E-01 0.00000E+00 1.00000E+00
 -1       105 5.00000E-01 0.00000E+00 1.00000E+00
 -1       106 7.50000E-01 0.00000E+00 1.00000E+00
 -1       107 5.00000E-01 0.00000E+00 1.50000E+00
 -1       108 2.50000E-01 0.00000E+00 2.00000E+00
 -1       109 5.00000E-01 0.00000E+00 2.00000E+00
 -1       110 7.50000E-01 0.00000E+00 2.00000E+00
 -1       111 5.00000E-01 0.00000E+00 2.50000E+00
 -1       112 2.50000E-01 0.00000E+00 3.00000E+00
 -1       113 5.00000E-01 0.00000E+00 3.00000E+00
 -1       114 7.50000E-01 0.00000E+00 3.00000E+00
 -1       115 5.00000E-01 0.00000E+00 3.50000E+00
 -1       116 2.50000E-01 0.00000E+00 4.00000E+00
 -1       117 5.00000E-01 0.00000E+00 4.00000E+00
 -1       118 7.50000E-01 0.00000E+00 4.00000E+00
 -1       119 5.00000E-01 0.00000E+00 4.50000E+00
 -1       120 2.50000E-01 0.00000E+00 5.00000E+00
 -1       121 5.00000E-01 0.00000E+00 5.00000E+00
 -1       122 7.50000E-01 0.00000E+00 5.00000E+00
 -1       123 5.00000E-01 0.00000E+00 5.50000E+00
 -1       124 2.50000E-01 0.00000E+00 6.00000E+00
 -1       125 5.00000E-01 0.00000E+00 6.00000E+00
 -1       126 7.50000E-01 0.00000E+00 6.00000E+00
 -1       127 5.00000E-01 0.00000E+00 6.50000E+00
 -1       128 2.50000E-01 0.00000E+00 7.00000E+00
 -1       129 5.00000E-01 0.00000E+00 7.00000E+00
 -1       130 7.50000E-01 0.00000E+00 7.00000E+00
 -1       131 5.00000E-01 0.00000E+00 7.50000E+00
 -1       132 1.00000E+00 5.00000E-01 5.00000E-01
 -1       133 1.00000E+00 2.50000E-01 1.00000E+00
 -1       134 1.00000E+00 5.00000E-01 1.00000E+00
 -1       135 1.00000E+00 7.50000E-01 1.00000E+00
 -1       136 1.00000E+00 5.00000E-01 1.50000E+00
 -1       137 1.00000E+00 2.50000E-01 2.00000E+00
 -1       138 1.00000E+00 5.00000E-01 2.00000E+00
 -1       139 1.00000E+00 7.50000E-01 2.00000E+00
 -1       140 1.00000E+00 5.00000E-01 2.50000E+00
 -1       141 1.00000E+00 2.50000E-01 3.00000E+00
 -1       142 1.00000E+00 5.00000E-01 3.00000E+00
 -1       143 1.00000E+00 7.50000E-01 3.00000E+00
 -1       144 1.00000E+00 5.00000E-01 3.50000E+00
 -1       145 1.00000E+00 2.50000E-01 4.00000E+00
 -1       146 1.00000E+00 5.00000E-01 4.00000E+00
 -1       147 1.00000E+00 7.50000E-01 4.00000E+00
 -1       148 1.00000E+00 5.00000E-01 4.50000E+00
 -1       149 1.00000E+00 2.50000E-01 5.00000E+00
 -1       150 1.00000E+00 5.00000E-01 5.00000E+00
 -1       151 1.00000E+00 7.50000E-01 5.00000E+00
 -1       152 1.00000E+00 5.00000E-01 5.50000E+00
 -1       153 1.00000E+00 2.50000E-01 6.00000E+00
 -1       154 1.00000E+00 5.00000E-01 6.00000E+00
 -1       155 1.00000E+00 7.50000E-01 6.00000E+00
 -1       156 1.00000E+00 5.00000E-01 6.50000E+00
 -1       157 1.00000E+00 2.50000E-01 7.00000E+00
 -1       158 1.00000E+00 5.00000E-01 7.00000E+00
 -1       159 1.00000E+00 7.50000E-01 7.00000E+00
 -1       160 1.00000E+00 5.00000E-01 7.50000E+00
 -1       161 5.00000E-01 1.00000E+00 5.00000E-01
 -1       162 7.50000E-01 1.00000E+00 1.00000E+00
 -1       163 5.00000E-01 1.00000E+00 1.00000E+00
 -1       164 2.50000E-01 1.00000E+00 1.00000E+00
 -1       165 5.00000E-01 1.00000E+00 1.50000E+00
 -1       166 7.50000E-01 1.00000E+00 2.00000E+00
 -1       167 5.00000E-01 1.00000E+00 2.00000E+00
 -1       168 2.50000E-01 1.00000E+00 2.00000E+00
 -1       169 5.00000E-01 1.00000E+00 2.50000E+00
 -1       170 7.50000E-01 1.00000E+00 3.00000E+00
 -1       171 5.00000E-01 1.00000E+00 3.00000E+00
 -1       172 2.50000E-01 1.00000E+00 3.00000E+00
 -1       173 5.00000E-01 1.00000E+00 3.50000E+00
 -1       174 7.50000E-01 1.00000E+00 4.00000E+00
 -1       175 5.00000E-01 1.00000E+00 4.00000E+00
 -1       176 2.50000E-01 1.00000E+00 4.00000E+00
 -1       177 5.00000E-01 1.00000E+00 4.50000E+00
 -1       178 7.50000E-01 1.00000E+00 5.00000E+00
 -1       179 5.00000E-01 1.00000E+00 5.00000E+00
 -1       180 2.50000E-01 1.00000E+00 5.00000E+00
 -1       181 5.00000E-01 1.00000E+00 5.50000E+00
 -1       182 7.50000E-01 1.00000E+00 6.00000E+00
 -1       183 5.00000E-01 1.00000E+00 6.00000E+00
 -1       184 2.50000E-01 1.00000E+00 6.00000E+00
 -1       185 5.00000E-01 1.00000E+00 6.50000E+00
 -1       186 7.50000E-01 1.00000E+00 7.00000E+00
 -1       187 5.00000E-01 1.00000E+00 7.00000E+00
 -1       188 2.50000E-01 1.00000E+00 7.00000E+00
 -1       189 5.00000E-01 1.00000E+00 7.50000E+00
 -1       190 0.00000E+00 5.00000E-01 5.00000E-01
 -1       191 0.00000E+00 7.50000E-01 1.00000E+00
 -1       192 0.00000E+00 5.00000E-01 1.00000E+00
 -1       193 0.00000E+00 2.50000E-01 1.00000E+00
 -1       194 0.00000E+00 5.00000E-01 1.50000E+00
 -1       195 0.00000E+00 7.50000E-01 2.00000E+00
 -1       196 0.00000E+00 5.00000E-01 2.00000E+00
 -1       197 0.00000E+00 2.50000E-01 2.00000E+00
 -1       198 0.00000E+00 5.00000E-01 2.50000E+00
 -1       199 0.00000E+00 7.50000E-01 3.00000E+00
 -1       200 0.00000E+00 5.00000E-01 3.00000E+00
 -1       201 0.00000E+00 2.50000E-01 3.00000E+00
 -1       202 0.00000E+00 5.00000E-01 3.50000E+00
 -1       203 0.00000E+00 7.50000E-01 4.00000E+00
 -1       204 0.00000E+00 5.00000E-01 4.00000E+00
 -1       205 0.00000E+00 2.50000E-01 4.00000E+00
 -1       206 0.00000E+00 5.00000E-01 4.50000E+00
 -1       207 0.00000E+00 7.50000E-01 5.00000E+00
 -1       208 0.00000E+00 5.00000E-01 5.00000E+00
 -1       209 0.00000E+00 2.50000E-01 5.00000E+00
 -1       210 0.00000E+00 5.00000E-01 5.50000E+00
 -1       211 0.00000E+00 7.50000E-01 6.00000E+00
 -1       212 0.00000E+00 5.00000E-01 6.00000E+00
 -1       213 0.00000E+00 2.50000E-01 6.00000E+00
 -1       214 0.00000E+00 5.00000E-01 6.50000E+00
 -1       215 0.00000E+00 7.50000E-01 7.00000E+00
 -1       216 0.00000E+00 5.00000E-01 7.00000E+00
 -1       217 0.00000E+00 2.50000E-01 7.00000E+00
 -1       218 0.00000E+00 5.00000E-01 7.50000E+00
 -1       219 5.00000E-01 5.00000E-01 5.00000E-01
 -1       220 5.00000E-01 2.50000E-01 1.00000E+00
 -1       221 2.50000E-01 5.00000E-01 1.00000E+00
 -1       222 5.00000E-01 5.00000E-01 1.00000E+00
 -1       223 7.50000E-01 5.00000E-01 1.00000E+00
 -1       224 5.00000E-01 7.50000E-01 1.00000E+00
 -1       225 5.00000E-01 5.00000E-01 1.50000E+00
 -1       226 5.00000E-01 2.50000E-01 2.00000E+00
 -1       227 2.50000E-01 5.00000E-01 2.00000E+00
 -1       228 5.00000E-01 5.00000E-01 2.00000E+00
 -1       229 7.50000E-01 5.00000E-01 2.00000E+00
 -1       230 5.00000E-01 7.50000E-01 2.00000E+00
 -1       231 5.00000E-01 5.00000E-01 2.50000E+00
 -1       232 5.00000E-01 2.50000E-01 3.00000E+00
 -1       233 2.50000E-01 5.00000E-01 3.00000E+00
 -1       234 5.00000E-01 5.00000E-01 3.00000E+00
 -1       235 7.50000E-01 5.00000E-01 3.00000E+00
 -1       236 5.00000E-01 7.50000E-01 3.00000E+00
 -1       237 5.00000E-01 5.00000E-01 3.50000E+00
 -1       238 5.00000E-01 2.50000E-01 4.00000E+00
 -1       239 2.50000E-01 5.00000E-01 4.00000E+00
 -1       240 5.00000E-01 5.00000E-01 4.00000E+00
 -1       241 7.50000E-01 5.00000E-01 4.00000E+00
 -1       242 5.00000E-01 7.50000E-01 4.00000E+00
 -1       243 5.00000E-01 5.00000E-01 4.50000E+00
 -1       244 5.00000E-01 2.50000E-01 5.00000E+00
 -1       245 2.50000E-01 5.00000E-01 5.00000E+00
 -1       246 5.00000E-01 5.00000E-01 5.00000E+00
 -1       247 7.50000E-01 5.00000E-01 5.00000E+00
 -1       248 5.00000E-01 7.50000E-01 5.00000E+00
 -1       249 5.00000E-01 5.00000E-01 5.50000E+00
 -1       250 5.00000E-01 2.50000E-01 6.00000E+00
 -1       251 2.50000E-01 5.00000E-01 6.00000E+00
 -1       252 5.00000E-01 5.00000E-01 6.00000E+00
 -1       253 7.50000E-01 5.00000E-01 6.00000E+00
 -1       254 5.00000E-01 7.50000E-01 6.00000E+00
 -1       255 5.00000E-01 5.00000E-01 6.50000E+00
 -1       256 5.00000E-01 2.50000E-01 7.00000E+00
 -1       257 2.50000E-01 5.00000E-01 7.00000E+00
 -1       258 5.00000E-01 5.00000E-01 7.00000E+00
 -1       259 7.50000E-01 5.00000E-01 7.00000E+00
 -1       260 5.00000E-01 7.50000E-01 7.00000E+00
 -1       261 5.00000E-01 5.00000E-01 7.50000E+00
 -3
    3C                            32                                     1
 -1         1    4    0    1
 -2         1        10        95        19        61       105       222       192         9        93
 -2        94        20        62       103       219       190       104       220       221       193
 -1         2    4    0    1
 -2        10         2        13        95       105        34       134       222        11        12
 -2        96        93       103        33       132       219       106       133       223       220
 -1         3    4    0    1
 -2        19        95        16         4       192       222       163        79        94        97
 -2        17        18       190       219       161        78       221       224       164       191
 -1         4    4    0    1
 -2        95        13         3        16       222       134        64       163        96        14
 -2        15        97       219       132        63       161       223       135       162       224
 -1         5    4    0    1
 -2        61       105       222       192        59       109       228       196       104       220
 -2       221       193        60       107       225       194       108       226       227       197
 -1         6    4    0    1
 -2       105        34       134       222       109        36       138       228       106       133
 -2       223       220       107        35       136       225       110       137       229       226
 -1         7    4    0    1
 -2       192       222       163        79       196       228       167        81       221       224
 -2       164       191       194       225       165        80       227       230       168       195
 -1         8    4    0    1
 -2       222       134        64       163       228       138        66       167       223       135
 -2       162       224       225       136        65       165       229       139       166       230
 -1         9    4    0    1
 -2        59       109       228       196        57       113       234       200       108       226
 -2       227       197        58       111       231       198       112       232       233       201
 -1        10    4    0    1
 -2       109        36       138       228       113        38       142       234       110       137
 -2       229       226       111        37       140       231       114       141       235       232
 -1        11    4    0    1
 -2       196       228       167        81       200       234       171        83       227       230
 -2       168       195       198       231       169        82       233       236       172       199
 -1        12    4    0    1
 -2       228       138        66       167       234       142        68       171       229       139
 -2       166       230       231       140        67       169       235       143       170       236
 -1        13    4    0    1
 -2        57       113       234       200        55       117       240       204       112       232
 -2       233       201        56       115       237       202       116       238       239       205
 -1        14    4    0    1
 -2       113        38       142       234       117        40       146       240       114       141
 -2       235       232       115        39       144       237       118       145       241       238
 -1        15    4    0    1
 -2       200       234       171        83       204       240       175        85       233       236
 -2       172       199       202       237       173        84       239       242       176       203
 -1        16    4    0    1
 -2       234       142        68       171       240       146        70       175       235       143
 -2       170       236       237       144        69       173       241       147       174       242
 -1        17    4    0    1
 -2        55       117       240       204        53       121       246       208       116       238
 -2       239       205        54       119       243       206       120       244       245       209
 -1        18    4    0    1
 -2       117        40       146       240       121        42       150       246       118       145
 -2       241       238       119        41       148       243       122       149       247       244
 -1        19    4    0    1
 -2       204       240       175        85       208       246       179        87       239       242
 -2       176       203       206       243       177        86       245       248       180       207
 -1        20    4    0    1
 -2       240       146        70       175       246       150        72       179       241       147
 -2       174       242       243       148        71       177       247       151       178       248
 -1        21    4    0    1
 -2        53       121       246       208        51       125       252       212       120       244
 -2       245       209        52       123       249       210       124       250       251       213
 -1        22    4    0    1
 -2       121        42       150       246       125        44       154       252       122       149
 -2       247       244       123        43       152       249       126       153       253       250
 -1        23    4    0    1
 -2       208       246       179        87       212       252       183        89       245       248
 -2       180       207       210       249       181        88       251       254       184       211
 -1        24    4    0    1
 -2       246       150        72       179       252       154        74       183       247       151
 -2       178       248       249       152        73       181       253       155       182       254
 -1        25    4    0    1
 -2        51       125       252       212        49       129       258       216       124       250
 -2       251       213        50       127       255       214       128       256       257       217
 -1        26    4    0    1
 -2       125        44       154       252       129        46       158       258       126       153
 -2       253       250       127        45       156       255       130       157       259       256
 -1        27    4    0    1
 -2       212       252       183        89       216       258       187        91       251       254
 -2       184       211       214       255       185        90       257       260       188       215
 -1        28    4    0    1
 -2       252       154        74       183       258       158        76       187       253       155
 -2       182       254       255       156        75       185       259       159       186       260
 -1        29    4    0    1
 -2        49       129       258       216         5        22       100        31       128       256
 -2       257       217        48       131       261       218        21        98        99        32
 -1        30    4    0    1
 -2       129        46       158       258        22         6        25       100       130       157
 -2       259       256       131        47       160       261        23        24       101        98
 -1        31    4    0    1
 -2       216       258       187        91        31       100        28         8       257       260
 -2       188       215       218       261       189        92        99       102        29        30
 -1        32    4    0    1
 -2       258       158        76       187       100        25         7        28       259       159
 -2       186       260       261       160        77       189       101        26        27       102
 -3
    1PSTEP                         1           1           3          
  100CL  112 3.000000000         261                     0   12           1
 -4  DISP        4    1
 -5  D1          1    2    1    0
 -5  D2          1    2    2    0
 -5  D3          1    2    3    0
 -5  ALL         1    2    0    0    1ALL
 -1         1-9.24325E-07 5.00070E-01 5.00006E-01
 -1         2 9.24325E-07 5.00070E-01 5.00006E-01
 -1         3 9.24325E-07-4.99930E-01-5.00006E-01
 -1         4-9.24325E-07-4.99930E-01-5.00006E-01
 -1         5 3.91774E-05 8.50047E+00-7.50004E+00
 -1         6-3.91774E-05 8.50047E+00-7.50004E+00
 -1         7-3.91774E-05 7.50047E+00-8.49996E+00
 -1         8 3.91774E-05 7.50047E+00-8.49996E+00
 -1         9 2.35501E-07 5.00070E-01 5.00013E-01
 -1        10 4.41659E-16 5.00071E-01 5.00013E-01
 -1        11-2.35501E-07 5.00070E-01 5.00013E-01
 -1        12-4.58757E-06 2.50044E-01 2.50000E-01
 -1        13 0.00000E+00 0.00000E+00 0.00000E+00
 -1        14-4.58757E-06-2.49956E-01-2.50000E-01
 -1        15-2.35501E-07-4.99930E-01-5.00013E-01
 -1        16 2.00510E-17-4.99929E-01-5.00013E-01
 -1        17 2.35501E-07-4.99930E-01-5.00013E-01
 -1        18 4.58757E-06-2.49956E-01-2.50000E-01
 -1        19 0.00000E+00 0.00000E+00 0.00000E+00
 -1        20 4.58757E-06 2.50044E-01 2.50000E-01
 -1        21 1.63771E-05 8.50040E+00-7.50003E+00
 -1        22 4.02697E-16 8.50039E+00-7.50001E+00
 -1        23-1.63771E-05 8.50040E+00-7.50003E+00
 -1        24-2.61347E-05 8.25040E+00-7.75002E+00
 -1        25-1.00478E-05 8.00039E+00-8.00000E+00
 -1        26-2.61347E-05 7.75040E+00-8.24998E+00
 -1        27-1.63771E-05 7.50040E+00-8.49997E+00
 -1        28 1.03354E-15 7.50039E+00-8.49999E+00
 -1        29 1.63771E-05 7.50040E+00-8.49997E+00
 -1        30 2.61347E-05 7.75040E+00-8.24998E+00
 -1        31 1.00478E-05 8.00039E+00-8.00000E+00
 -1        32 2.61347E-05 8.25040E+00-7.75002E+00
 -1        33-9.03979E-08 1.00006E+00-1.60152E-05
 -1        34-9.87640E-06 1.50009E+00-5.00001E-01
 -1        35-6.46615E-06 2.00010E+00-1.00001E+00
 -1        36-6.52710E-06 2.50013E+00-1.50001E+00
 -1        37-6.28575E-06 3.00015E+00-2.00001E+00
 -1        38-6.64274E-06 3.50017E+00-2.50001E+00
 -1        39-6.37507E-06 4.00019E+00-3.00001E+00
 -1        40-6.61701E-06 4.50021E+00-3.50001E+00
 -1        41-6.35582E-06 5.00023E+00-4.00001E+00
 -1        42-6.97480E-06 5.50025E+00-4.50001E+00
 -1        43-5.79650E-06 6.00028E+00-5.00001E+00
 -1        44-8.72135E-06 6.50030E+00-5.50001E+00
 -1        45-5.70751E-06 7.00032E+00-6.00001E+00
 -1        46-1.42960E-05 7.50033E+00-6.50001E+00
 -1        47 4.08208E-06 8.00038E+00-7.00000E+00
 -1        48-4.08208E-06 8.00038E+00-7.00000E+00
 -1        49 1.42960E-05 7.50033E+00-6.50001E+00
 -1        50 5.70751E-06 7.00032E+00-6.00001E+00
 -1        51 8.72135E-06 6.50030E+00-5.50001E+00
 -1        52 5.79650E-06 6.00028E+00-5.00001E+00
 -1        53 6.97480E-06 5.50025E+00-4.50001E+00
 -1        54 6.35582E-06 5.00023E+00-4.00001E+00
 -1        55 6.61701E-06 4.50021E+00-3.50001E+00
 -1        56 6.37507E-06 4.00019E+00-3.00001E+00
 -1        57 6.64274E-06 3.50017E+00-2.50001E+00
 -1        58 6.28575E-06 3.00015E+00-2.00001E+00
 -1        59 6.52710E-06 2.50013E+00-1.50001E+00
 -1        60 6.46615E-06 2.00010E+00-1.00001E+00
 -1        61 9.87640E-06 1.50009E+00-5.00001E-01
 -1        62 9.03979E-08 1.00006E+00-1.60152E-05
 -1        63-9.03979E-08 6.23513E-05-9.99984E-01
 -1        64-9.87640E-06 5.00086E-01-1.50000E+00
 -1        65-6.46615E-06 1.00011E+00-1.99999E+00
 -1        66-6.52710E-06 1.50013E+00-2.49999E+00
 -1        67-6.28575E-06 2.00015E+00-2.99999E+00
 -1        68-6.64274E-06 2.50017E+00-3.49999E+00
 -1        69-6.37507E-06 3.00019E+00-3.99999E+00
 -1        70-6.61701E-06 3.50021E+00-4.49999E+00
 -1        71-6.35582E-06 4.00023E+00-4.99999E+00
 -1        72-6.97480E-06 4.50025E+00-5.49999E+00
 -1        73-5.79650E-06 5.00028E+00-5.99999E+00
 -1        74-8.72135E-06 5.50030E+00-6.49999E+00
 -1        75-5.70751E-06 6.00032E+00-6.99999E+00
 -1        76-1.42960E-05 6.50033E+00-7.49999E+00
 -1        77 4.08208E-06 7.00038E+00-8.00000E+00
 -1        78 9.03979E-08 6.23513E-05-9.99984E-01
 -1        79 9.87640E-06 5.00086E-01-1.50000E+00
 -1        80 6.46615E-06 1.00011E+00-1.99999E+00
 -1        81 6.52710E-06 1.50013E+00-2.49999E+00
 -1        82 6.28575E-06 2.00015E+00-2.99999E+00
 -1        83 6.64274E-06 2.50017E+00-3.49999E+00
 -1        84 6.37507E-06 3.00019E+00-3.99999E+00
 -1        85 6.61701E-06 3.50021E+00-4.49999E+00
 -1        86 6.35582E-06 4.00023E+00-4.99999E+00
 -1        87 6.97480E-06 4.50025E+00-5.49999E+00
 -1        88 5.79650E-06 5.00028E+00-5.99999E+00
 -1        89 8.72135E-06 5.50030E+00-6.49999E+00
 -1        90 5.70751E-06 6.00032E+00-6.99999E+00
 -1        91 1.42960E-05 6.50033E+00-7.49999E+00
 -1        92-4.08208E-06 7.00038E+00-8.00000E+00
 -1        93 2.95108E-16 2.50043E-01 2.50004E-01
 -1        94 0.00000E+00 0.00000E+00 0.00000E+00
 -1        95 0.00000E+00 0.00000E+00 0.00000E+00
 -1        96 0.00000E+00 0.00000E+00 0.00000E+00
 -1        97-1.69552E-17-2.49957E-01-2.50004E-01
 -1        98 9.68065E-17 8.25038E+00-7.75001E+00
 -1        99 5.81775E-06 8.00038E+00-8.00000E+00
 -1       100 0.00000E+00 8.00036E+00-8.00000E+00
 -1       101-5.81775E-06 8.00038E+00-8.00000E+00
 -1       102 6.12109E-16 7.75038E+00-8.24999E+00
 -1       103-2.01558E-16 1.00006E+00-1.28160E-05
 -1       104 4.80130E-06 1.50008E+00-5.00001E-01
 -1       105-1.19855E-16 1.50008E+00-5.00001E-01
 -1       106-4.80130E-06 1.50008E+00-5.00001E-01
 -1       107-1.01845E-15 2.00011E+00-1.00001E+00
 -1       108 3.31319E-06 2.50013E+00-1.50001E+00
 -1       109-9.62842E-16 2.50012E+00-1.50001E+00
 -1       110-3.31319E-06 2.50013E+00-1.50001E+00
 -1       111-1.52797E-15 3.00015E+00-2.00001E+00
 -1       112 3.31269E-06 3.50017E+00-2.50001E+00
 -1       113 2.26983E-17 3.50017E+00-2.50001E+00
 -1       114-3.31269E-06 3.50017E+00-2.50001E+00
 -1       115-2.06149E-15 4.00019E+00-3.00001E+00
 -1       116 3.30515E-06 4.50021E+00-3.50001E+00
 -1       117-9.11531E-16 4.50021E+00-3.50001E+00
 -1       118-3.30515E-06 4.50021E+00-3.50001E+00
 -1       119-3.81940E-15 5.00023E+00-4.00001E+00
 -1       120 3.51200E-06 5.50025E+00-4.50001E+00
 -1       121-4.10363E-15 5.50025E+00-4.50001E+00
 -1       122-3.51200E-06 5.50025E+00-4.50001E+00
 -1       123-3.28603E-15 6.00028E+00-5.00001E+00
 -1       124 4.28709E-06 6.50030E+00-5.50001E+00
 -1       125 3.32945E-16 6.50030E+00-5.50001E+00
 -1       126-4.28709E-06 6.50030E+00-5.50001E+00
 -1       127-2.16742E-16 7.00032E+00-6.00001E+00
 -1       128 7.34743E-06 7.50034E+00-6.50001E+00
 -1       129 6.15698E-16 7.50034E+00-6.50001E+00
 -1       130-7.34743E-06 7.50034E+00-6.50001E+00
 -1       131-4.83879E-16 8.00037E+00-7.00000E+00
 -1       132-1.02016E-05 5.00055E-01-5.00000E-01
 -1       133-5.04355E-06 1.25008E+00-7.50001E-01
 -1       134-2.34732E-06 1.00008E+00-1.00000E+00
 -1       135-5.04355E-06 7.50083E-01-1.25000E+00
 -1       136-7.38117E-06 1.50010E+00-1.50000E+00
 -1       137-6.12911E-06 2.25013E+00-1.75000E+00
 -1       138-5.19230E-06 2.00013E+00-2.00000E+00
 -1       139-6.12911E-06 1.75013E+00-2.25000E+00
 -1       140-6.59551E-06 2.50015E+00-2.50000E+00
 -1       141-6.36228E-06 3.25017E+00-2.75000E+00
 -1       142-6.23654E-06 3.00017E+00-3.00000E+00
 -1       143-6.36228E-06 2.75017E+00-3.25000E+00
 -1       144-6.46005E-06 3.50019E+00-3.50000E+00
 -1       145-6.45771E-06 4.25021E+00-3.75000E+00
 -1       146-6.22682E-06 4.00021E+00-4.00000E+00
 -1       147-6.45771E-06 3.75021E+00-4.25000E+00
 -1       148-6.60838E-06 4.50023E+00-4.50000E+00
 -1       149-6.49098E-06 5.25025E+00-4.75000E+00
 -1       150-6.12219E-06 5.00025E+00-5.00000E+00
 -1       151-6.49098E-06 4.75025E+00-5.25000E+00
 -1       152-6.45747E-06 5.50028E+00-5.50000E+00
 -1       153-7.20228E-06 6.25030E+00-5.75000E+00
 -1       154-5.33027E-06 6.00030E+00-6.00000E+00
 -1       155-7.20228E-06 5.75030E+00-6.25000E+00
 -1       156-7.87940E-06 6.50032E+00-6.50000E+00
 -1       157-1.00989E-05 7.25034E+00-6.75001E+00
 -1       158-6.86443E-06 7.00034E+00-7.00000E+00
 -1       159-1.00989E-05 6.75034E+00-7.24999E+00
 -1       160-1.92840E-06 7.50037E+00-7.50000E+00
 -1       161-4.14858E-16 6.23274E-05-9.99987E-01