
 displacements (vx,vy,vz) for set NALL and time  0.1000000E+01

         1  0.000000E+00  0.000000E+00  0.000000E+00
         2  0.000000E+00  0.000000E+00  0.000000E+00
         3  0.000000E+00  0.000000E+00  0.000000E+00
         4  0.000000E+00  0.000000E+00  0.000000E+00
         5 -2.127563E-05  8.422891E-02  7.890020E-03
         6  2.127563E-05  8.422891E-02  7.890020E-03
         7 -2.127563E-05  8.422891E-02 -7.890020E-03
         8  2.127563E-05  8.422891E-02 -7.890020E-03
         9  0.000000E+00  0.000000E+00  0.000000E+00
        10  0.000000E+00  0.000000E+00  0.000000E+00
        11  0.000000E+00  0.000000E+00  0.000000E+00
        12  0.000000E+00  0.000000E+00  0.000000E+00
        13  0.000000E+00  0.000000E+00  0.000000E+00
        14  0.000000E+00  0.000000E+00  0.000000E+00
        15  0.000000E+00  0.000000E+00  0.000000E+00
        16  0.000000E+00  0.000000E+00  0.000000E+00
        17  0.000000E+00  0.000000E+00  0.000000E+00
        18  0.000000E+00  0.000000E+00  0.000000E+00
        19  0.000000E+00  0.000000E+00  0.000000E+00
        20  0.000000E+00  0.000000E+00  0.000000E+00
        21 -1.005919E-05  8.417409E-02  7.882334E-03
        22  1.069564E-13  8.416843E-02  7.869713E-03
        23  1.005919E-05  8.417409E-02  7.882334E-03
        24 -2.028327E-06  8.418433E-02  3.927556E-03
        25  1.071773E-13  8.415449E-02 -9.922639E-15
        26  2.028328E-06  8.418433E-02 -3.927556E-03
        27 -1.005919E-05  8.417409E-02 -7.882334E-03
        28  1.076213E-13  8.416843E-02 -7.869713E-03
        29  1.005919E-05  8.417409E-02 -7.882334E-03
        30 -2.028327E-06  8.418433E-02 -3.927556E-03
        31  1.073678E-13  8.415449E-02  1.042562E-14
        32  2.028328E-06  8.418433E-02  3.927556E-03
        33 -2.227488E-04  5.149992E-04  8.833983E-04
        34 -1.537453E-04  1.834818E-03  1.781212E-03
        35 -1.787962E-04  4.116605E-03  2.626036E-03
        36 -1.567331E-04  7.147341E-03  3.403586E-03
        37 -1.493961E-04  1.096462E-02  4.113539E-03
        38 -1.339762E-04  1.543760E-02  4.766033E-03
        39 -1.218320E-04  2.054569E-02  5.355606E-03
        40 -1.078574E-04  2.620447E-02  5.884264E-03
        41 -9.475641E-05  3.236378E-02  6.348964E-03
        42 -8.156333E-05  3.895642E-02  6.752861E-03
        43 -6.695676E-05  4.592102E-02  7.094173E-03
        44 -5.377045E-05  5.320225E-02  7.374966E-03
        45 -4.143098E-05  6.071585E-02  7.589972E-03
        46 -3.364536E-05  6.843356E-02  7.745677E-03
        47 -4.267602E-06  7.626611E-02  7.839781E-03
        48  4.267602E-06  7.626611E-02  7.839781E-03
        49  3.364536E-05  6.843356E-02  7.745677E-03
        50  4.143098E-05  6.071585E-02  7.589972E-03
        51  5.377045E-05  5.320225E-02  7.374966E-03
        52  6.695676E-05  4.592102E-02  7.094173E-03
        53  8.156333E-05  3.895642E-02  6.752861E-03
        54  9.475641E-05  3.236378E-02  6.348964E-03
        55  1.078574E-04  2.620447E-02  5.884264E-03
        56  1.218320E-04  2.054569E-02  5.355606E-03
        57  1.339762E-04  1.543760E-02  4.766033E-03
        58  1.493961E-04  1.096462E-02  4.113539E-03
        59  1.567331E-04  7.147341E-03  3.403586E-03
        60  1.787962E-04  4.116605E-03  2.626036E-03
        61  1.537453E-04  1.834818E-03  1.781212E-03
        62  2.227488E-04  5.149992E-04  8.833983E-04
        63  2.227488E-04  5.149992E-04 -8.833983E-04
        64  1.537453E-04  1.834818E-03 -1.781212E-03
        65  1.787962E-04  4.116605E-03 -2.626036E-03
        66  1.567331E-04  7.147341E-03 -3.403586E-03
        67  1.493961E-04  1.096462E-02 -4.113539E-03
        68  1.339762E-04  1.543760E-02 -4.766033E-03
        69  1.218320E-04  2.054569E-02 -5.355606E-03
        70  1.078574E-04  2.620447E-02 -5.884264E-03
        71  9.475641E-05  3.236378E-02 -6.348964E-03
        72  8.156333E-05  3.895642E-02 -6.752861E-03
        73  6.695676E-05  4.592102E-02 -7.094173E-03
        74  5.377045E-05  5.320225E-02 -7.374966E-03
        75  4.143098E-05  6.071585E-02 -7.589972E-03
        76  3.364536E-05  6.843356E-02 -7.745677E-03
        77  4.267602E-06  7.626611E-02 -7.839781E-03
        78 -2.227488E-04  5.149992E-04 -8.833983E-04
        79 -1.537453E-04  1.834818E-03 -1.781212E-03
        80 -1.787962E-04  4.116605E-03 -2.626036E-03
        81 -1.567331E-04  7.147341E-03 -3.403586E-03
        82 -1.493961E-04  1.096462E-02 -4.113539E-03
        83 -1.339762E-04  1.543760E-02 -4.766033E-03
        84 -1.218320E-04  2.054569E-02 -5.355606E-03
        85 -1.078574E-04  2.620447E-02 -5.884264E-03
        86 -9.475641E-05  3.236378E-02 -6.348964E-03
        87 -8.156333E-05  3.895642E-02 -6.752861E-03
        88 -6.695676E-05  4.592102E-02 -7.094173E-03
        89 -5.377045E-05  5.320225E-02 -7.374966E-03
        90 -4.143098E-05  6.071585E-02 -7.589972E-03
        91 -3.364536E-05  6.843356E-02 -7.745677E-03
        92 -4.267602E-06  7.626611E-02 -7.839781E-03
        93  0.000000E+00  0.000000E+00  0.000000E+00
        94  0.000000E+00  0.000000E+00  0.000000E+00
        95  0.000000E+00  0.000000E+00  0.000000E+00
        96  0.000000E+00  0.000000E+00  0.000000E+00
        97  0.000000E+00  0.000000E+00  0.000000E+00
        98  1.070818E-13  8.415510E-02  3.928793E-03
        99  1.073313E-13  8.415243E-02  5.296214E-15
       100  1.072685E-13  8.414331E-02  2.137908E-16
       101  1.072117E-13  8.415243E-02 -4.860966E-15
       102  1.074434E-13  8.415510E-02 -3.928793E-03
       103  3.802009E-16  6.098527E-04  8.610627E-04
       104  7.628415E-05  1.910779E-03  1.793828E-03
       105  2.044078E-15  1.927419E-03  1.806741E-03
       106 -7.628415E-05  1.910779E-03  1.793828E-03
       107  4.713488E-15  4.200974E-03  2.624033E-03
       108  7.834989E-05  7.208507E-03  3.409540E-03
       109  8.449059E-15  7.232614E-03  3.411849E-03
       110 -7.834989E-05  7.208507E-03  3.409540E-03
       111  1.309215E-14  1.103729E-02  4.115558E-03
       112  6.694954E-05  1.548981E-02  4.769561E-03
       113  1.865001E-14  1.550727E-02  4.769893E-03
       114 -6.694954E-05  1.548981E-02  4.769561E-03
       115  2.503462E-14  2.060594E-02  5.358474E-03
       116  5.393365E-05  2.624500E-02  5.887394E-03
       117  3.218866E-14  2.625896E-02  5.887145E-03
       118 -5.393365E-05  2.624500E-02  5.887394E-03
       119  4.001465E-14  3.241128E-02  6.351899E-03
       120  4.076776E-05  3.898696E-02  6.756043E-03
       121  4.845299E-14  3.899628E-02  6.755759E-03
       122 -4.076776E-05  3.898696E-02  6.756043E-03
       123  5.741855E-14  4.595524E-02  7.097050E-03
       124  2.694122E-05  5.321851E-02  7.377739E-03
       125  6.690113E-14  5.322464E-02  7.377386E-03
       126 -2.694122E-05  5.321851E-02  7.377739E-03
       127  7.667478E-14  6.074008E-02  7.592907E-03
       128  1.653582E-05  6.844661E-02  7.749327E-03
       129  8.673921E-14  6.844027E-02  7.749113E-03
       130 -1.653582E-05  6.844661E-02  7.749327E-03
       131  9.679823E-14  7.627379E-02  7.841827E-03
       132  7.013072E-16  3.350876E-04 -1.014848E-15
       133 -7.774476E-05  1.753236E-03  8.856159E-04
       134  2.276323E-15  1.758631E-03 -2.157183E-15
       135  7.774476E-05  1.753236E-03 -8.856159E-04
       136  5.010952E-15  3.974388E-03 -3.162503E-15
       137 -7.817872E-05  7.076775E-03  1.694734E-03
       138  8.702606E-15  7.058066E-03 -4.135147E-15
       139  7.817872E-05  7.076775E-03 -1.694734E-03
       140  1.335646E-14  1.085304E-02 -5.021537E-15
       141 -6.703350E-05  1.536979E-02  2.377078E-03
       142  1.886808E-14  1.535111E-02 -5.877881E-15
       143  6.703350E-05  1.536979E-02 -2.377078E-03
       144  2.524576E-14  2.045749E-02 -6.671014E-15
       145 -5.396175E-05  2.614865E-02  2.935727E-03
       146  3.238739E-14  2.613069E-02 -7.379744E-15
       147  5.396175E-05  2.614865E-02 -2.935727E-03
       148  4.018118E-14  3.229680E-02 -8.007436E-15
       149 -4.059050E-05  3.891318E-02  3.370403E-03
       150  4.861411E-14  3.889845E-02 -8.574250E-15
       151  4.059050E-05  3.891318E-02 -3.370403E-03
       152  5.766142E-14  4.587423E-02 -9.139824E-15
       153 -2.769154E-05  5.316936E-02  3.680532E-03
       154  6.717933E-14  5.315643E-02 -9.461616E-15
       155  2.769154E-05  5.316936E-02 -3.680532E-03
       156  7.695446E-14  6.069333E-02 -9.732449E-15
       157 -1.374742E-05  6.841602E-02  3.869141E-03
       158  8.692385E-14  6.840447E-02 -9.866721E-15
       159  1.374742E-05  6.841602E-02 -3.869141E-03
       160  9.709831E-14  7.626138E-02 -9.882649E-15
       161  3.969161E-16  6.098527E-04 -8.610627E-04
       162  7.628415E-05  1.910779E-03 -1.793828E-03
       163  2.079012E-15  1.927419E-03 -1.806741E-03
       164 -7.628415E-05  1.910779E-03 -1.793828E-03
       165  4.759431E-15  4.200974E-03 -2.624033E-03
       166  7.834989E-05  7.208507E-03 -3.409540E-03
       167  8.493985E-15  7.232614E-03 -3.411849E-03
       168 -7.834989E-05  7.208507E-03 -3.409540E-03
       169  1.313606E-14  1.103729E-02 -4.115558E-03
       170  6.694954E-05  1.548981E-02 -4.769561E-03
       171  1.867527E-14  1.550727E-02 -4.769893E-03
       172 -6.694954E-05  1.548981E-02 -4.769561E-03
       173  2.505201E-14  2.060594E-02 -5.358474E-03
       174  5.393365E-05  2.624500E-02 -5.887394E-03
       175  3.221685E-14  2.625896E-02 -5.887145E-03
       176 -5.393365E-05  2.624500E-02 -5.887394E-03
       177  4.005246E-14  3.241128E-02 -6.351899E-03
       178  4.076776E-05  3.898696E-02 -6.756043E-03
       179  4.855491E-14  3.899628E-02 -6.755759E-03
       180 -4.076776E-05  3.898696E-02 -6.756043E-03
       181  5.769603E-14  4.595524E-02 -7.097050E-03
       182  2.694122E-05  5.321851E-02 -7.377739E-03
       183  6.732115E-14  5.322464E-02 -7.377386E-03
       184 -2.694122E-05  5.321851E-02 -7.377739E-03
       185  7.714307E-14  6.074008E-02 -7.592907E-03
       186  1.653582E-05  6.844661E-02 -7.749327E-03
       187  8.721496E-14  6.844027E-02 -7.749113E-03
       188 -1.653582E-05  6.844661E-02 -7.749327E-03
       189  9.731908E-14  7.627379E-02 -7.841827E-03
       190  7.057629E-16  3.350876E-04  1.026536E-15
       191 -7.774476E-05  1.753236E-03 -8.856159E-04
       192  2.282178E-15  1.758631E-03  2.193707E-15
       193  7.774476E-05  1.753236E-03  8.856159E-04
       194  5.013796E-15  3.974388E-03  3.197468E-15
       195 -7.817872E-05  7.076775E-03 -1.694734E-03
       196  8.689013E-15  7.058066E-03  4.200190E-15
       197  7.817872E-05  7.076775E-03  1.694734E-03
       198  1.336297E-14  1.085304E-02  5.111034E-15
       199 -6.703350E-05  1.536979E-02 -2.377078E-03
       200  1.887463E-14  1.535111E-02  5.981164E-15
       201  6.703350E-05  1.536979E-02  2.377078E-03
       202  2.525267E-14  2.045749E-02  6.788989E-15
       203 -5.396175E-05  2.614865E-02 -2.935727E-03
       204  3.237270E-14  2.613069E-02  7.569986E-15
       205  5.396175E-05  2.614865E-02  2.935727E-03
       206  4.022436E-14  3.229680E-02  8.201031E-15
       207 -4.059050E-05  3.891318E-02 -3.370403E-03
       208  4.862579E-14  3.889845E-02  8.837292E-15
       209  4.059050E-05  3.891318E-02  3.370403E-03
       210  5.768042E-14  4.587423E-02  9.346690E-15
       211 -2.769154E-05  5.316936E-02 -3.680532E-03
       212  6.717461E-14  5.315643E-02  9.769027E-15
       213  2.769154E-05  5.316936E-02  3.680532E-03
       214  7.697800E-14  6.069333E-02  1.004719E-14
       215 -1.374742E-05  6.841602E-02 -3.869141E-03
       216  8.701093E-14  6.840447E-02  1.021752E-14
       217  1.374742E-05  6.841602E-02  3.869141E-03
       218  9.707481E-14  7.626138E-02  1.033355E-14
       219  5.402977E-16  4.289577E-04  7.730823E-18
       220  2.182126E-15  1.841732E-03  8.973552E-04
       221  2.210553E-15  1.832187E-03  1.096526E-15
       222  2.216502E-15  1.844681E-03  1.278021E-17
       223  2.208682E-15  1.832187E-03 -1.064771E-15
       224  2.198626E-15  1.841732E-03 -8.973552E-04
       225  4.888824E-15  4.062729E-03  2.547875E-17
       226  8.562027E-15  7.158533E-03  1.700613E-03
       227  8.632851E-15  7.115346E-03  2.108238E-15
       228  8.617197E-15  7.135931E-03  2.759713E-17
       229  8.633413E-15  7.115346E-03 -2.047072E-15
       230  8.588177E-15  7.158533E-03 -1.700613E-03
       231  1.325587E-14  1.092845E-02  4.208060E-17
       232  1.876077E-14  1.543753E-02  2.380373E-03
       233  1.880923E-14  1.540146E-02  3.014977E-15
       234  1.879319E-14  1.541703E-02  5.470546E-17
       235  1.880766E-14  1.540146E-02 -2.909538E-15
       236  1.877030E-14  1.543753E-02 -2.380373E-03
       237  2.516333E-14  2.051879E-02  6.585574E-17
       238  3.226690E-14  2.620274E-02  2.938660E-03
       239  3.232679E-14  2.617089E-02  3.820241E-15
       240  3.230922E-14  2.618429E-02  9.051585E-17
       241  3.232724E-14  2.617089E-02 -3.636778E-15
       242  3.228290E-14  2.620274E-02 -2.938660E-03
       243  4.013234E-14  3.234412E-02  1.058181E-16
       244  4.853886E-14  3.895360E-02  3.373224E-03
       245  4.857848E-14  3.892918E-02  4.465982E-15
       246  4.856241E-14  3.893966E-02  9.681925E-17
       247  4.858006E-14  3.892918E-02 -4.232346E-15
       248  4.859716E-14  3.895360E-02 -3.373224E-03
       249  5.761357E-14  4.590728E-02  1.551493E-16
       250  6.704377E-14  5.319522E-02  3.683644E-03
       251  6.716087E-14  5.317764E-02  4.931837E-15
       252  6.713727E-14  5.318490E-02  1.290960E-16
       253  6.713120E-14  5.317764E-02 -4.658559E-15
       254  6.721795E-14  5.319522E-02 -3.683644E-03
       255  7.693995E-14  6.071301E-02  1.470178E-16
       256  8.683852E-14  6.842596E-02  3.870469E-03
       257  8.697383E-14  6.841518E-02  5.216083E-15
       258  8.693609E-14  6.842093E-02  2.117481E-16
       259  8.691919E-14  6.841518E-02 -4.814373E-15
       260  8.710047E-14  6.842596E-02 -3.870469E-03
       261  9.708618E-14  7.626308E-02  1.790794E-16

 stresses (elem, integ.pnt.,sxx,syy,szz,sxy,sxz,syz) for set EALL and time  0.1000000E+01

         1   1  7.264617E+01  7.903562E+01  3.399406E+02 -8.957396E+00  3.489712E+01  1.432709E+01
         1   2  6.901478E+01  7.502037E+01  3.323315E+02  2.534357E+00  6.689933E+00  3.173514E+01
         1   3  2.040263E+00 -2.234388E+01  7.336040E+01 -9.043956E+00  9.366324E+00 -1.378162E+01
         1   4  1.134213E+00 -2.317919E+01  7.134725E+01  2.447998E+00  1.777220E+00  3.719392E+00
         1   5 -2.221904E+01 -1.703451E+01  3.013342E+02 -3.082960E+00 -1.519742E+01 -1.770335E+00
         1   6 -1.389580E+01 -1.131467E+01  3.153727E+02  1.087047E+00 -4.607804E+00 -3.212056E+00
         1   7 -1.064680E+01 -1.514085E+01  7.591630E+01 -4.014556E+00 -4.129396E+00  2.118907E+01
         1   8 -8.597459E+00 -1.399827E+01  7.945580E+01  1.562054E-01 -1.322929E+00  1.979332E+01
         2   1  6.901478E+01  7.502037E+01  3.323315E+02 -2.534357E+00 -6.689933E+00  3.173514E+01
         2   2  7.264617E+01  7.903562E+01  3.399406E+02  8.957396E+00 -3.489712E+01  1.432709E+01
         2   3  1.134213E+00 -2.317919E+01  7.134725E+01 -2.447998E+00 -1.777220E+00  3.719392E+00
         2   4  2.040263E+00 -2.234388E+01  7.336040E+01  9.043956E+00 -9.366324E+00 -1.378162E+01
         2   5 -1.389580E+01 -1.131467E+01  3.153727E+02 -1.087047E+00  4.607804E+00 -3.212056E+00
         2   6 -2.221904E+01 -1.703451E+01  3.013342E+02  3.082960E+00  1.519742E+01 -1.770335E+00
         2   7 -8.597459E+00 -1.399827E+01  7.945580E+01 -1.562054E-01  1.322929E+00  1.979332E+01
         2   8 -1.064680E+01 -1.514085E+01  7.591630E+01  4.014556E+00  4.129396E+00  2.118907E+01
         3   1 -2.040263E+00  2.234388E+01 -7.336040E+01 -9.043956E+00 -9.366324E+00 -1.378162E+01
         3   2 -1.134213E+00  2.317919E+01 -7.134725E+01  2.447998E+00 -1.777220E+00  3.719392E+00
         3   3 -7.264617E+01 -7.903562E+01 -3.399406E+02 -8.957396E+00 -3.489712E+01  1.432709E+01
         3   4 -6.901478E+01 -7.502037E+01 -3.323315E+02  2.534357E+00 -6.689933E+00  3.173514E+01
         3   5  1.064680E+01  1.514085E+01 -7.591630E+01 -4.014556E+00  4.129396E+00  2.118907E+01
         3   6  8.597459E+00  1.399827E+01 -7.945580E+01  1.562054E-01  1.322929E+00  1.979332E+01
         3   7  2.221904E+01  1.703451E+01 -3.013342E+02 -3.082960E+00  1.519742E+01 -1.770335E+00
         3   8  1.389580E+01  1.131467E+01 -3.153727E+02  1.087047E+00  4.607804E+00 -3.212056E+00
         4   1 -1.134213E+00  2.317919E+01 -7.134725E+01 -2.447998E+00  1.777220E+00  3.719392E+00
         4   2 -2.040263E+00  2.234388E+01 -7.336040E+01  9.043956E+00  9.366324E+00 -1.378162E+01
         4   3 -6.901478E+01 -7.502037E+01 -3.323315E+02 -2.534357E+00  6.689933E+00  3.173514E+01
         4   4 -7.264617E+01 -7.903562E+01 -3.399406E+02  8.957396E+00  3.489712E+01  1.432709E+01
         4   5  8.597459E+00  1.399827E+01 -7.945580E+01 -1.562054E-01 -1.322929E+00  1.979332E+01
         4   6  1.064680E+01  1.514085E+01 -7.591630E+01  4.014556E+00 -4.129396E+00  2.118907E+01
         4   7  1.389580E+01  1.131467E+01 -3.153727E+02 -1.087047E+00 -4.607804E+00 -3.212056E+00
         4   8  2.221904E+01  1.703451E+01 -3.013342E+02  3.082960E+00 -1.519742E+01 -1.770335E+00
         5   1  7.668408E+00 -1.568259E+00  2.905365E+02  4.657554E+00  6.369394E+00  1.195919E+01
         5   2  5.024950E+00 -5.618498E+00  2.829169E+02 -2.771188E+00  2.876726E+00  9.581854E+00
         5   3  1.119277E+01  2.371283E+01  8.710060E+01  4.362564E+00  1.601056E+00  7.756295E+00
         5   4  1.100960E+01  2.377411E+01  8.569566E+01 -3.066233E+00  7.028891E-01  6.702661E+00
         5   5 -4.742400E+00 -6.146495E+00  2.629466E+02 -8.386335E-01 -3.363314E+00  1.266523E+00
         5   6 -2.183248E+00 -3.927080E+00  2.670299E+02 -1.686171E-01 -1.650203E+00  1.639347E+00
         5   7 -3.138492E+00 -6.184520E+00  6.849734E+01 -8.476256E-01 -8.096030E-01  1.730157E+01
         5   8 -2.306327E+00 -5.406913E+00  6.984949E+01 -1.804248E-01 -3.128855E-01  1.579256E+01
         6   1  5.024950E+00 -5.618498E+00  2.829169E+02  2.771188E+00 -2.876726E+00  9.581854E+00
         6   2  7.668408E+00 -1.568259E+00  2.905365E+02 -4.657554E+00 -6.369394E+00  1.195919E+01
         6   3  1.100960E+01  2.377411E+01  8.569566E+01  3.066233E+00 -7.028891E-01  6.702661E+00
         6   4  1.119277E+01  2.371283E+01  8.710060E+01 -4.362564E+00 -1.601056E+00  7.756295E+00
         6   5 -2.183248E+00 -3.927080E+00  2.670299E+02  1.686171E-01  1.650203E+00  1.639347E+00
         6   6 -4.742400E+00 -6.146495E+00  2.629466E+02  8.386335E-01  3.363314E+00  1.266523E+00
         6   7 -2.306327E+00 -5.406913E+00  6.984949E+01  1.804248E-01  3.128855E-01  1.579256E+01
         6   8 -3.138492E+00 -6.184520E+00  6.849734E+01  8.476256E-01  8.096030E-01  1.730157E+01
         7   1 -1.119277E+01 -2.371283E+01 -8.710060E+01  4.362564E+00 -1.601056E+00  7.756295E+00
         7   2 -1.100960E+01 -2.377411E+01 -8.569566E+01 -3.066233E+00 -7.028891E-01  6.702661E+00
         7   3 -7.668408E+00  1.568259E+00 -2.905365E+02  4.657554E+00 -6.369394E+00  1.195919E+01
         7   4 -5.024950E+00  5.618498E+00 -2.829169E+02 -2.771188E+00 -2.876726E+00  9.581854E+00
         7   5  3.138492E+00  6.184520E+00 -6.849734E+01 -8.476256E-01  8.096030E-01  1.730157E+01
         7   6  2.306327E+00  5.406913E+00 -6.984949E+01 -1.804248E-01  3.128855E-01  1.579256E+01
         7   7  4.742400E+00  6.146495E+00 -2.629466E+02 -8.386335E-01  3.363314E+00  1.266523E+00
         7   8  2.183248E+00  3.927080E+00 -2.670299E+02 -1.686171E-01  1.650203E+00  1.639347E+00
         8   1 -1.100960E+01 -2.377411E+01 -8.569566E+01  3.066233E+00  7.028891E-01  6.702661E+00
         8   2 -1.119277E+01 -2.371283E+01 -8.710060E+01 -4.362564E+00  1.601056E+00  7.756295E+00
         8   3 -5.024950E+00  5.618498E+00 -2.829169E+02  2.771188E+00  2.876726E+00  9.581854E+00
         8   4 -7.668408E+00  1.568259E+00 -2.905365E+02 -4.657554E+00  6.369394E+00  1.195919E+01
         8   5  2.306327E+00  5.406913E+00 -6.984949E+01  1.804248E-01 -3.128855E-01  1.579256E+01
         8   6  3.138492E+00  6.184520E+00 -6.849734E+01  8.476256E-01 -8.096030E-01  1.730157E+01
         8   7  2.183248E+00  3.927080E+00 -2.670299E+02  1.686171E-01 -1.650203E+00  1.639347E+00
         8   8  4.742400E+00  6.146495E+00 -2.629466E+02  8.386335E-01 -3.363314E+00  1.266523E+00
         9   1  3.435417E+00  7.388273E+00  2.476731E+02 -3.500335E-01  9.801000E-01  7.839561E+00
         9   2  2.365236E+00  6.046753E+00  2.456355E+02  9.465394E-01  1.078442E-01  6.120050E+00
         9   3  5.251972E-01  6.999127E-01  6.599452E+01 -4.285122E-01  4.792663E-01  1.196004E+01
         9   4  3.970833E-03 -2.300276E-01  6.519871E+01  8.680752E-01  2.372519E-01  1.008035E+01
         9   5 -1.057816E+00 -2.248319E+00  2.216529E+02 -2.325534E-01 -1.088052E+00  4.205154E+00
         9   6 -4.231901E-01 -1.418471E+00  2.225024E+02 -1.432218E-01 -7.682720E-01  3.805534E+00
         9   7 -9.501486E-01 -2.426190E+00  5.879610E+01 -8.687777E-02 -1.020674E-01  1.500807E+01
         9   8 -6.564298E-01 -1.863008E+00  5.913204E+01  1.296168E-02 -2.467670E-02  1.298124E+01
        10   1  2.365236E+00  6.046753E+00  2.456355E+02 -9.465394E-01 -1.078442E-01  6.120050E+00
        10   2  3.435417E+00  7.388273E+00  2.476731E+02  3.500335E-01 -9.801000E-01  7.839561E+00
        10   3  3.970833E-03 -2.300276E-01  6.519871E+01 -8.680752E-01 -2.372519E-01  1.008035E+01
        10   4  5.251972E-01  6.999127E-01  6.599452E+01  4.285122E-01 -4.792663E-01  1.196004E+01
        10   5 -4.231901E-01 -1.418471E+00  2.225024E+02  1.432218E-01  7.682720E-01  3.805534E+00
        10   6 -1.057816E+00 -2.248319E+00  2.216529E+02  2.325534E-01  1.088052E+00  4.205154E+00
        10   7 -6.564298E-01 -1.863008E+00  5.913204E+01 -1.296168E-02  2.467670E-02  1.298124E+01
        10   8 -9.501486E-01 -2.426190E+00  5.879610E+01  8.687777E-02  1.020674E-01  1.500807E+01
        11   1 -5.251972E-01 -6.999127E-01 -6.599452E+01 -4.285122E-01 -4.792663E-01  1.196004E+01
        11   2 -3.970833E-03  2.300276E-01 -6.519871E+01  8.680752E-01 -2.372519E-01  1.008035E+01
        11   3 -3.435417E+00 -7.388273E+00 -2.476731E+02 -3.500335E-01 -9.801000E-01  7.839561E+00
        11   4 -2.365236E+00 -6.046753E+00 -2.456355E+02  9.465394E-01 -1.078442E-01  6.120050E+00
        11   5  9.501486E-01  2.426190E+00 -5.879610E+01 -8.687777E-02  1.020674E-01  1.500807E+01
        11   6  6.564298E-01  1.863008E+00 -5.913204E+01  1.296168E-02  2.467670E-02  1.298124E+01
        11   7  1.057816E+00  2.248319E+00 -2.216529E+02 -2.325534E-01  1.088052E+00  4.205154E+00
        11   8  4.231901E-01  1.418471E+00 -2.225024E+02 -1.432218E-01  7.682720E-01  3.805534E+00
        12   1 -3.970833E-03  2.300276E-01 -6.519871E+01 -8.680752E-01  2.372519E-01  1.008035E+01
        12   2 -5.251972E-01 -6.999127E-01 -6.599452E+01  4.285122E-01  4.792663E-01  1.196004E+01
        12   3 -2.365236E+00 -6.046753E+00 -2.456355E+02 -9.465394E-01  1.078442E-01  6.120050E+00
        12   4 -3.435417E+00 -7.388273E+00 -2.476731E+02  3.500335E-01  9.801000E-01  7.839561E+00
        12   5  6.564298E-01  1.863008E+00 -5.913204E+01 -1.296168E-02 -2.467670E-02  1.298124E+01
        12   6  9.501486E-01  2.426190E+00 -5.879610E+01  8.687777E-02 -1.020674E-01  1.500807E+01
        12   7  4.231901E-01  1.418471E+00 -2.225024E+02  1.432218E-01 -7.682720E-01  3.805534E+00
        12   8  1.057816E+00  2.248319E+00 -2.216529E+02  2.325534E-01 -1.088052E+00  4.205154E+00
        13   1  3.229059E-01  5.599459E-01  2.039416E+02  3.704501E-01 -2.440115E-01  6.536106E+00
        13   2  1.056037E-01 -6.849687E-03  2.035189E+02 -8.813121E-02 -3.509980E-01  5.275831E+00
        13   3  9.942410E-01  2.558409E+00  5.553741E+01  2.153753E-01  1.055140E-01  1.296845E+01
        13   4  8.442038E-01  2.164254E+00  5.533745E+01 -2.432099E-01  7.728617E-02  1.121961E+01
        13   5 -3.115866E-01 -8.459258E-01  1.793306E+02 -1.164635E-01 -6.517151E-01  5.084907E+00
        13   6 -1.284632E-01 -4.461883E-01  1.795219E+02 -3.497777E-02 -5.643230E-01  4.308537E+00
        13   7 -4.043102E-01 -9.521077E-01  4.771199E+01 -7.092271E-03  5.279254E-03  1.428852E+01
        13   8 -2.606787E-01 -6.130447E-01  4.786291E+01  3.517748E-02  2.913504E-02  1.231803E+01
        14   1  1.056037E-01 -6.849687E-03  2.035189E+02  8.813121E-02  3.509980E-01  5.275831E+00
        14   2  3.229059E-01  5.599459E-01  2.039416E+02 -3.704501E-01  2.440115E-01  6.536106E+00
        14   3  8.442038E-01  2.164254E+00  5.533745E+01  2.432099E-01 -7.728617E-02  1.121961E+01
        14   4  9.942410E-01  2.558409E+00  5.553741E+01 -2.153753E-01 -1.055140E-01  1.296845E+01
        14   5 -1.284632E-01 -4.461883E-01  1.795219E+02  3.497777E-02  5.643230E-01  4.308537E+00
        14   6 -3.115866E-01 -8.459258E-01  1.793306E+02  1.164635E-01  6.517151E-01  5.084907E+00
        14   7 -2.606787E-01 -6.130447E-01  4.786291E+01 -3.517748E-02 -2.913504E-02  1.231803E+01
        14   8 -4.043102E-01 -9.521077E-01  4.771199E+01  7.092271E-03 -5.279254E-03  1.428852E+01
        15   1 -9.942410E-01 -2.558409E+00 -5.553741E+01  2.153753E-01 -1.055140E-01  1.296845E+01
        15   2 -8.442038E-01 -2.164254E+00 -5.533745E+01 -2.432099E-01 -7.728617E-02  1.121961E+01
        15   3 -3.229059E-01 -5.599459E-01 -2.039416E+02  3.704501E-01  2.440115E-01  6.536106E+00
        15   4 -1.056037E-01  6.849687E-03 -2.035189E+02 -8.813121E-02  3.509980E-01  5.275831E+00
        15   5  4.043102E-01  9.521077E-01 -4.771199E+01 -7.092271E-03 -5.279254E-03  1.428852E+01
        15   6  2.606787E-01  6.130447E-01 -4.786291E+01  3.517748E-02 -2.913504E-02  1.231803E+01
        15   7  3.115866E-01  8.459258E-01 -1.793306E+02 -1.164635E-01  6.517151E-01  5.084907E+00
        15   8  1.284632E-01  4.461883E-01 -1.795219E+02 -3.497777E-02  5.643230E-01  4.308537E+00
        16   1 -8.442038E-01 -2.164254E+00 -5.533745E+01  2.432099E-01  7.728617E-02  1.121961E+01
        16   2 -9.942410E-01 -2.558409E+00 -5.553741E+01 -2.153753E-01  1.055140E-01  1.296845E+01
        16   3 -1.056037E-01  6.849687E-03 -2.035189E+02  8.813121E-02 -3.509980E-01  5.275831E+00
        16   4 -3.229059E-01 -5.599459E-01 -2.039416E+02 -3.704501E-01 -2.440115E-01  6.536106E+00
        16   5  2.606787E-01  6.130447E-01 -4.786291E+01 -3.517748E-02  2.913504E-02  1.231803E+01
        16   6  4.043102E-01  9.521077E-01 -4.771199E+01  7.092271E-03  5.279254E-03  1.428852E+01
        16   7  1.284632E-01  4.461883E-01 -1.795219E+02  3.497777E-02 -5.643230E-01  4.308537E+00
        16   8  3.115866E-01  8.459258E-01 -1.793306E+02  1.164635E-01 -6.517151E-01  5.084907E+00
        17   1  2.939722E-01  8.682619E-01  1.613892E+02  2.814578E-02 -4.638992E-01  5.713308E+00
        17   2  1.714115E-01  5.622739E-01  1.612704E+02  1.201145E-01 -5.099931E-01  4.783279E+00
        17   3  2.091295E-01  5.070547E-01  4.339423E+01 -6.402885E-02  4.548017E-02  1.368324E+01
        17   4  7.313568E-02  1.708121E-01  4.325438E+01  2.794088E-02  4.110307E-02  1.182017E+01
        17   5 -2.550800E-01 -4.803256E-01  1.367666E+02 -2.985742E-02 -4.786608E-01  5.653001E+00
        17   6 -1.568085E-01 -2.901432E-01  1.368280E+02 -2.186168E-01 -5.357542E-01  4.617698E+00
        17   7 -2.285197E-01 -7.344694E-01  3.646276E+01  6.831951E-02  3.297522E-02  1.378561E+01
        17   8 -8.518776E-02 -3.775754E-01  3.659136E+01  2.591609E-02  2.565080E-02  1.194369E+01
        18   1  1.714115E-01  5.622739E-01  1.612704E+02 -1.201145E-01  5.099931E-01  4.783279E+00
        18   2  2.939722E-01  8.682619E-01  1.613892E+02 -2.814578E-02  4.638992E-01  5.713308E+00
        18   3  7.313568E-02  1.708121E-01  4.325438E+01 -2.794088E-02 -4.110307E-02  1.182017E+01
        18   4  2.091295E-01  5.070547E-01  4.339423E+01  6.402885E-02 -4.548017E-02  1.368324E+01
        18   5 -1.568085E-01 -2.901432E-01  1.368280E+02  2.186168E-01  5.357542E-01  4.617698E+00
        18   6 -2.550800E-01 -4.803256E-01  1.367666E+02  2.985742E-02  4.786608E-01  5.653001E+00
        18   7 -8.518776E-02 -3.775754E-01  3.659136E+01 -2.591609E-02 -2.565080E-02  1.194369E+01
        18   8 -2.285197E-01 -7.344694E-01  3.646276E+01 -6.831951E-02 -3.297522E-02  1.378561E+01
        19   1 -2.091295E-01 -5.070547E-01 -4.339423E+01 -6.402885E-02 -4.548017E-02  1.368324E+01
        19   2 -7.313568E-02 -1.708121E-01 -4.325438E+01  2.794088E-02 -4.110307E-02  1.182017E+01
        19   3 -2.939722E-01 -8.682619E-01 -1.613892E+02  2.814578E-02  4.638992E-01  5.713308E+00
        19   4 -1.714115E-01 -5.622739E-01 -1.612704E+02  1.201145E-01  5.099931E-01  4.783279E+00
        19   5  2.285197E-01  7.344694E-01 -3.646276E+01  6.831951E-02 -3.297522E-02  1.378561E+01
        19   6  8.518776E-02  3.775754E-01 -3.659136E+01  2.591609E-02 -2.565080E-02  1.194369E+01
        19   7  2.550800E-01  4.803256E-01 -1.367666E+02 -2.985742E-02  4.786608E-01  5.653001E+00
        19   8  1.568085E-01  2.901432E-01 -1.368280E+02 -2.186168E-01  5.357542E-01  4.617698E+00
        20   1 -7.313568E-02 -1.708121E-01 -4.325438E+01 -2.794088E-02  4.110307E-02  1.182017E+01
        20   2 -2.091295E-01 -5.070547E-01 -4.339423E+01  6.402885E-02  4.548017E-02  1.368324E+01
        20   3 -1.714115E-01 -5.622739E-01 -1.612704E+02 -1.201145E-01 -5.099931E-01  4.783279E+00
        20   4 -2.939722E-01 -8.682619E-01 -1.613892E+02 -2.814578E-02 -4.638992E-01  5.713308E+00
        20   5  8.518776E-02  3.775754E-01 -3.659136E+01 -2.591609E-02  2.565080E-02  1.194369E+01
        20   6  2.285197E-01  7.344694E-01 -3.646276E+01 -6.831951E-02  3.297522E-02  1.378561E+01
        20   7  1.568085E-01  2.901432E-01 -1.368280E+02  2.186168E-01 -5.357542E-01  4.617698E+00
        20   8  2.550800E-01  4.803256E-01 -1.367666E+02  2.985742E-02 -4.786608E-01  5.653001E+00
        21   1  2.626952E-01  6.318209E-01  1.187855E+02  1.404132E-01 -6.238624E-01  5.372335E+00