
 displacements (vx,vy,vz) for set NALL and time  0.1000000E+01

         1  0.000000E+00  0.000000E+00  0.000000E+00
         2 -2.252710E-02  0.000000E+00  0.000000E+00
         3 -4.185381E-03  1.255389E-02  0.000000E+00
         4 -1.834171E-02  1.255389E-02  0.000000E+00
         5 -1.173388E-02  1.286446E+00 -2.495633E-02
         6 -1.079321E-02  1.286446E+00 -2.495633E-02
         7 -1.083059E-02  1.275618E+00 -2.016798E-01
         8 -1.169650E-02  1.275618E+00 -2.016798E-01
         9 -6.089706E-03  1.213043E-02  0.000000E+00
        10 -1.126355E-02  1.592087E-02  0.000000E+00
        11 -1.643739E-02  1.213043E-02  0.000000E+00
        12 -1.448142E-02  3.749827E-03  0.000000E+00
        13 -1.071766E-02  7.914479E-03  0.000000E+00
        14 -7.846533E-03  9.731750E-03  0.000000E+00
        15 -7.779208E-03  1.257013E-02  0.000000E+00
        16 -1.126355E-02  1.146271E-02  0.000000E+00
        17 -1.474789E-02  1.257013E-02  0.000000E+00
        18 -1.468056E-02  9.731750E-03  0.000000E+00
        19 -1.180944E-02  7.914479E-03  0.000000E+00
        20 -8.045671E-03  3.749827E-03  0.000000E+00
        21 -1.134923E-02  1.294052E+00 -2.162476E-02
        22 -1.126355E-02  1.303835E+00 -1.861709E-02
        23 -1.117787E-02  1.294052E+00 -2.162476E-02
        24 -9.727145E-03  1.284431E+00 -6.803743E-02
        25 -1.046638E-02  1.281316E+00 -1.124785E-01
        26 -9.758929E-03  1.278104E+00 -1.563811E-01
        27 -1.114374E-02  1.269356E+00 -1.960863E-01
        28 -1.126355E-02  1.259914E+00 -1.904002E-01
        29 -1.138335E-02  1.269356E+00 -1.960863E-01
        30 -1.276817E-02  1.278104E+00 -1.563811E-01
        31 -1.206072E-02  1.281316E+00 -1.124785E-01
        32 -1.279995E-02  1.284431E+00 -6.803743E-02
        33 -1.899289E-02  2.306352E-02  2.151815E-02
        34 -1.637633E-02  5.855652E-02  4.081027E-02
        35 -1.597273E-02  1.169472E-01  5.545107E-02
        36 -1.514606E-02  1.894807E-01  6.459428E-02
        37 -1.405405E-02  2.763452E-01  6.813804E-02
        38 -1.270160E-02  3.705539E-01  6.623020E-02
        39 -1.175302E-02  4.697902E-01  5.963228E-02
        40 -1.073264E-02  5.681817E-01  4.961778E-02
        41 -1.074500E-02  6.636855E-01  3.845544E-02
        42 -1.066907E-02  7.556262E-01  2.809180E-02
        43 -1.096661E-02  8.469591E-01  1.812390E-02
        44 -1.075969E-02  9.360166E-01  9.226023E-03
        45 -1.130033E-02  1.025711E+00  1.935798E-04
        46 -1.051689E-02  1.111915E+00 -7.708367E-03
        47 -1.215861E-02  1.202012E+00 -1.592656E-02
        48 -1.036848E-02  1.202012E+00 -1.592656E-02
        49 -1.201021E-02  1.111915E+00 -7.708367E-03
        50 -1.122677E-02  1.025711E+00  1.935798E-04
        51 -1.176741E-02  9.360166E-01  9.226023E-03
        52 -1.156049E-02  8.469591E-01  1.812390E-02
        53 -1.185802E-02  7.556262E-01  2.809180E-02
        54 -1.178210E-02  6.636855E-01  3.845544E-02
        55 -1.179445E-02  5.681817E-01  4.961778E-02
        56 -1.077408E-02  4.697902E-01  5.963228E-02
        57 -9.825499E-03  3.705539E-01  6.623020E-02
        58 -8.473045E-03  2.763452E-01  6.813804E-02
        59 -7.381040E-03  1.894807E-01  6.459428E-02
        60 -6.554366E-03  1.169472E-01  5.545107E-02
        61 -6.150766E-03  5.855652E-02  4.081027E-02
        62 -3.534208E-03  2.306352E-02  2.151815E-02
        63 -4.723424E-03  2.092144E-02 -2.253955E-02
        64 -5.573109E-03  5.675653E-02 -4.551195E-02
        65 -6.335042E-03  1.079337E-01 -6.625462E-02
        66 -7.535483E-03  1.791537E-01 -8.629309E-02
        67 -8.559695E-03  2.613948E-01 -1.039935E-01
        68 -9.563704E-03  3.514990E-01 -1.193186E-01
        69 -1.100005E-02  4.524414E-01 -1.327722E-01
        70 -1.116837E-02  5.473208E-01 -1.417360E-01
        71 -1.198885E-02  6.471491E-01 -1.499054E-01
        72 -1.160107E-02  7.369880E-01 -1.560603E-01
        73 -1.158988E-02  8.302329E-01 -1.633193E-01
        74 -1.143190E-02  9.203707E-01 -1.702538E-01
        75 -1.172313E-02  1.009220E+00 -1.772645E-01
        76 -1.085315E-02  1.099233E+00 -1.847698E-01
        77 -1.214155E-02  1.184802E+00 -1.917657E-01
        78 -1.780367E-02  2.092144E-02 -2.253955E-02
        79 -1.695399E-02  5.675653E-02 -4.551195E-02
        80 -1.619205E-02  1.079337E-01 -6.625462E-02
        81 -1.499161E-02  1.791537E-01 -8.629309E-02
        82 -1.396740E-02  2.613948E-01 -1.039935E-01
        83 -1.296339E-02  3.514990E-01 -1.193186E-01
        84 -1.152704E-02  4.524414E-01 -1.327722E-01
        85 -1.135873E-02  5.473208E-01 -1.417360E-01
        86 -1.053824E-02  6.471491E-01 -1.499054E-01
        87 -1.092602E-02  7.369880E-01 -1.560603E-01
        88 -1.093722E-02  8.302329E-01 -1.633193E-01
        89 -1.109519E-02  9.203707E-01 -1.702538E-01
        90 -1.080396E-02  1.009220E+00 -1.772645E-01
        91 -1.167394E-02  1.099233E+00 -1.847698E-01
        92 -1.038554E-02  1.184802E+00 -1.917657E-01
        93 -1.126355E-02  1.303657E-02  0.000000E+00
        94 -1.162819E-02  1.024373E-02  0.000000E+00
        95 -1.126355E-02  1.220027E-02  0.000000E+00
        96 -1.089891E-02  1.024373E-02  0.000000E+00
        97 -1.126355E-02  1.065716E-02  0.000000E+00
        98 -1.126355E-02  1.291378E+00 -6.836252E-02
        99 -1.221182E-02  1.281187E+00 -1.123594E-01
       100 -1.126355E-02  1.281165E+00 -1.128465E-01
       101 -1.031528E-02  1.281187E+00 -1.123594E-01
       102 -1.126355E-02  1.270783E+00 -1.544723E-01
       103 -1.126355E-02  2.592714E-02  2.172777E-02
       104 -8.583045E-03  6.128726E-02  4.076665E-02
       105 -1.126355E-02  6.353516E-02  4.057064E-02
       106 -1.394405E-02  6.128726E-02  4.076665E-02
       107 -1.126355E-02  1.186520E-01  5.515675E-02
       108 -9.374983E-03  1.915974E-01  6.472482E-02
       109 -1.126355E-02  1.924603E-01  6.479492E-02
       110 -1.315211E-02  1.915974E-01  6.472482E-02
       111 -1.126355E-02  2.774688E-01  6.793700E-02
       112 -1.052023E-02  3.714988E-01  6.650306E-02
       113 -1.126355E-02  3.718673E-01  6.658169E-02
       114 -1.200687E-02  3.714988E-01  6.650306E-02
       115 -1.126355E-02  4.696971E-01  5.959518E-02
       116 -1.157841E-02  5.676660E-01  4.985243E-02
       117 -1.126355E-02  5.681786E-01  4.977206E-02
       118 -1.094868E-02  5.676660E-01  4.985243E-02
       119 -1.126355E-02  6.631061E-01  3.881044E-02
       120 -1.154685E-02  7.558859E-01  2.783704E-02
       121 -1.126355E-02  7.560258E-01  2.763548E-02
       122 -1.098025E-02  7.558859E-01  2.783704E-02
       123 -1.126355E-02  8.463608E-01  1.847929E-02
       124 -1.151973E-02  9.365464E-01  8.988123E-03
       125 -1.126355E-02  9.373714E-01  8.735872E-03
       126 -1.100737E-02  9.365464E-01  8.988123E-03
       127 -1.126355E-02  1.024709E+00  4.210728E-04
       128 -1.161828E-02  1.114066E+00 -8.364935E-03
       129 -1.126355E-02  1.115512E+00 -8.874619E-03
       130 -1.090881E-02  1.114066E+00 -8.364935E-03
       131 -1.126355E-02  1.199785E+00 -1.433180E-02
       132 -1.095605E-02  1.951654E-02 -1.001728E-03
       133 -1.394315E-02  5.583530E-02  1.912471E-02
       134 -1.087469E-02  5.503034E-02 -1.570504E-03
       135 -7.883608E-03  5.480778E-02 -2.293769E-02
       136 -1.110211E-02  1.100220E-01 -5.039830E-03
       137 -1.305644E-02  1.855549E-01  2.672127E-02
       138 -1.112410E-02  1.826577E-01 -1.017927E-02
       139 -9.386822E-03  1.806560E-01 -4.755961E-02
       140 -1.125802E-02  2.673686E-01 -1.781080E-02
       141 -1.202281E-02  3.658849E-01  1.931126E-02
       142 -1.143046E-02  3.618522E-01 -2.635342E-02
       143 -1.045029E-02  3.564670E-01 -7.213461E-02
       144 -1.128814E-02  4.595566E-01 -3.613890E-02
       145 -1.145236E-02  5.636888E-01  1.363582E-03
       146 -1.165209E-02  5.591015E-01 -4.632406E-02
       147 -1.174849E-02  5.537899E-01 -9.383778E-02
       148 -1.125668E-02  6.542801E-01 -5.562044E-02
       149 -1.100120E-02  7.519152E-01 -1.814792E-02
       150 -1.141810E-02  7.480479E-01 -6.461328E-02
       151 -1.149424E-02  7.424486E-01 -1.104541E-01
       152 -1.135329E-02  8.386497E-01 -7.247375E-02
       153 -1.108216E-02  9.324540E-01 -3.579219E-02
       154 -1.151914E-02  9.286930E-01 -8.089025E-02
       155 -1.142831E-02  9.245445E-01 -1.255633E-01
       156 -1.094885E-02  1.017419E+00 -8.824764E-02
       157 -1.123311E-02  1.108634E+00 -5.206159E-02
       158 -1.158197E-02  1.105714E+00 -9.629716E-02
       159 -1.138769E-02  1.102638E+00 -1.407540E-01
       160 -1.114569E-02  1.193346E+00 -1.048165E-01
       161 -1.126355E-02  2.632802E-02 -2.295780E-02
       162 -8.317462E-03  5.554821E-02 -4.531086E-02
       163 -1.126355E-02  5.012555E-02 -4.427964E-02
       164 -1.420963E-02  5.554821E-02 -4.531086E-02
       165 -1.126355E-02  1.115840E-01 -6.694844E-02
       166 -9.411300E-03  1.793701E-01 -8.668164E-02
       167 -1.126355E-02  1.798608E-01 -8.679645E-02
       168 -1.311580E-02  1.793701E-01 -8.668164E-02
       169 -1.126355E-02  2.622608E-01 -1.044363E-01
       170 -1.037994E-02  3.544146E-01 -1.202701E-01
       171 -1.126355E-02  3.554128E-01 -1.205522E-01
       172 -1.214716E-02  3.544146E-01 -1.202701E-01
       173 -1.126355E-02  4.501511E-01 -1.324773E-01
       174 -1.135653E-02  5.520992E-01 -1.427363E-01
       175 -1.126355E-02  5.619685E-01 -1.445074E-01
       176 -1.117057E-02  5.520992E-01 -1.427363E-01
       177 -1.126355E-02  6.443650E-01 -1.493524E-01
       178 -1.139727E-02  7.393292E-01 -1.564084E-01
       179 -1.126355E-02  7.404101E-01 -1.566233E-01
       180 -1.112982E-02  7.393292E-01 -1.564084E-01
       181 -1.126355E-02  8.293382E-01 -1.630394E-01
       182 -1.135237E-02  9.202399E-01 -1.701865E-01
       183 -1.126355E-02  9.203087E-01 -1.701499E-01
       184 -1.117473E-02  9.202399E-01 -1.701865E-01
       185 -1.126355E-02  1.009694E+00 -1.773443E-01
       186 -1.108119E-02  1.096920E+00 -1.845678E-01
       187 -1.126355E-02  1.095535E+00 -1.844440E-01
       188 -1.144591E-02  1.096920E+00 -1.845678E-01
       189 -1.126355E-02  1.187497E+00 -1.911497E-01
       190 -1.157105E-02  1.951654E-02 -1.001728E-03
       191 -1.464349E-02  5.480778E-02 -2.293769E-02
       192 -1.165241E-02  5.503034E-02 -1.570504E-03
       193 -8.583949E-03  5.583530E-02  1.912471E-02
       194 -1.142499E-02  1.100220E-01 -5.039830E-03
       195 -1.314027E-02  1.806560E-01 -4.755961E-02
       196 -1.140299E-02  1.826577E-01 -1.017927E-02
       197 -9.470659E-03  1.855549E-01  2.672127E-02
       198 -1.126907E-02  2.673686E-01 -1.781080E-02
       199 -1.207681E-02  3.564670E-01 -7.213461E-02
       200 -1.109664E-02  3.618522E-01 -2.635342E-02
       201 -1.050428E-02  3.658849E-01  1.931126E-02
       202 -1.123896E-02  4.595566E-01 -3.613890E-02
       203 -1.077860E-02  5.537899E-01 -9.383778E-02
       204 -1.087501E-02  5.591015E-01 -4.632406E-02
       205 -1.107474E-02  5.636888E-01  1.363582E-03
       206 -1.127041E-02  6.542801E-01 -5.562044E-02
       207 -1.103285E-02  7.424486E-01 -1.104541E-01
       208 -1.110900E-02  7.480479E-01 -6.461328E-02
       209 -1.152589E-02  7.519152E-01 -1.814792E-02
       210 -1.117380E-02  8.386497E-01 -7.247375E-02
       211 -1.109878E-02  9.245445E-01 -1.255633E-01
       212 -1.100796E-02  9.286930E-01 -8.089025E-02
       213 -1.144494E-02  9.324540E-01 -3.579219E-02
       214 -1.157825E-02  1.017419E+00 -8.824764E-02
       215 -1.113940E-02  1.102638E+00 -1.407540E-01
       216 -1.094512E-02  1.105714E+00 -9.629716E-02
       217 -1.129399E-02  1.108634E+00 -5.206159E-02
       218 -1.138140E-02  1.193346E+00 -1.048165E-01
       219 -1.126355E-02  2.282535E-02 -8.051302E-04
       220 -1.126355E-02  6.003948E-02  1.882700E-02
       221 -1.163228E-02  5.677733E-02 -2.036209E-03
       222 -1.126355E-02  5.751005E-02 -2.417772E-03
       223 -1.089481E-02  5.677733E-02 -2.036209E-03
       224 -1.126355E-02  5.344932E-02 -2.305413E-02
       225 -1.126355E-02  1.122325E-01 -5.031107E-03
       226 -1.126355E-02  1.877884E-01  2.644849E-02
       227 -1.129298E-02  1.841034E-01 -1.074390E-02
       228 -1.126355E-02  1.843653E-01 -1.109093E-02
       229 -1.123412E-02  1.841034E-01 -1.074390E-02
       230 -1.126355E-02  1.815569E-01 -4.828367E-02
       231 -1.126355E-02  2.690226E-01 -1.782445E-02
       232 -1.126355E-02  3.663974E-01  1.934526E-02
       233 -1.122947E-02  3.615335E-01 -2.668652E-02
       234 -1.126355E-02  3.613044E-01 -2.698637E-02
       235 -1.129763E-02  3.615335E-01 -2.668652E-02
       236 -1.126355E-02  3.585020E-01 -7.315722E-02
       237 -1.126355E-02  4.608375E-01 -3.607025E-02
       238 -1.126355E-02  5.629214E-01  1.628028E-03
       239 -1.082271E-02  5.592920E-01 -4.634027E-02
       240 -1.126355E-02  5.581340E-01 -4.613116E-02
       241 -1.170438E-02  5.592920E-01 -4.634027E-02
       242 -1.126355E-02  5.595682E-01 -9.506955E-02
       243 -1.126355E-02  6.549853E-01 -5.607825E-02
       244 -1.126355E-02  7.514635E-01 -1.793662E-02
       245 -1.121388E-02  7.470482E-01 -6.408730E-02
       246 -1.126355E-02  7.465880E-01 -6.365650E-02
       247 -1.131322E-02  7.470482E-01 -6.408730E-02
       248 -1.126355E-02  7.437127E-01 -1.102941E-01
       249 -1.126355E-02  8.388606E-01 -7.269715E-02
       250 -1.126355E-02  9.326963E-01 -3.582327E-02
       251 -1.116554E-02  9.284122E-01 -8.046650E-02
       252 -1.126355E-02  9.280999E-01 -8.009636E-02
       253 -1.136155E-02  9.284122E-01 -8.046650E-02
       254 -1.126355E-02  9.241941E-01 -1.253481E-01
       255 -1.126355E-02  1.017354E+00 -8.891910E-02
       256 -1.126355E-02  1.110808E+00 -5.177506E-02
       257 -1.099940E-02  1.105636E+00 -9.619954E-02
       258 -1.126355E-02  1.105571E+00 -9.600277E-02
       259 -1.152769E-02  1.105636E+00 -9.619954E-02
       260 -1.126355E-02  1.100522E+00 -1.396238E-01
       261 -1.126355E-02  1.193409E+00 -1.041035E-01

 stresses (elem, integ.pnt.,sxx,syy,szz,sxy,sxz,syz) for set EALL and time  0.1000000E+01

         1   1 -2.438575E+02  1.308793E+03  7.955804E+03  3.883650E+02 -1.640250E+02  1.110830E+03
         1   2 -4.212934E+02 -4.380821E+02  7.455628E+03 -2.736779E+02 -5.565034E+00  7.502289E+00
         1   3  3.369528E+02  6.206798E+02  1.895462E+03  2.807336E+02  9.422302E+01  2.751404E+02
         1   4  2.881217E+02 -3.154189E+02  1.690246E+03  1.942473E+02  5.936969E+01 -4.401424E+01
         1   5 -6.454358E+01 -3.692085E+02  7.008929E+03 -1.415846E+02 -4.316482E+01  3.897105E+02
         1   6  8.543344E+01 -3.632189E+01  7.004384E+03 -1.924168E+02 -8.629265E-01  6.819648E+02
         1   7 -1.038756E+02 -3.977342E+02  1.722569E+03 -9.821586E+01  6.535190E+01  6.001330E+02
         1   8  9.856860E+01 -3.495369E+02  1.579299E+03  2.404895E+01  1.987140E+01  5.692227E+02
         2   1 -4.212934E+02 -4.380821E+02  7.455628E+03  2.736779E+02  5.565034E+00  7.502289E+00
         2   2 -2.438575E+02  1.308793E+03  7.955804E+03 -3.883650E+02  1.640250E+02  1.110830E+03
         2   3  2.881217E+02 -3.154189E+02  1.690246E+03 -1.942473E+02 -5.936969E+01 -4.401424E+01
         2   4  3.369528E+02  6.206798E+02  1.895462E+03 -2.807336E+02 -9.422302E+01  2.751404E+02
         2   5  8.543344E+01 -3.632189E+01  7.004384E+03  1.924168E+02  8.629265E-01  6.819648E+02
         2   6 -6.454358E+01 -3.692085E+02  7.008929E+03  1.415846E+02  4.316482E+01  3.897105E+02
         2   7  9.856860E+01 -3.495369E+02  1.579299E+03 -2.404895E+01 -1.987140E+01  5.692227E+02
         2   8 -1.038756E+02 -3.977342E+02  1.722569E+03  9.821586E+01 -6.535190E+01  6.001330E+02
         3   1 -3.938160E+01  5.959479E+01 -2.182976E+03 -1.282687E+01  1.533688E+01  3.805027E+01
         3   2  5.419906E+01 -1.163264E+02 -2.203116E+03  2.546688E+02  1.847915E+01  8.788156E+01
         3   3  1.732464E+01 -1.071100E+02 -6.994722E+03 -1.029721E+01 -4.263794E+01 -1.927877E+02
         3   4  9.936217E+01  1.768236E+02 -6.989549E+03  8.634520E+01 -2.161050E+01  3.122723E+02
         3   5  1.180204E+01 -1.141459E+02 -1.730338E+03 -8.236544E+01 -5.580087E+01  4.800607E+02
         3   6  8.596722E+01 -4.989662E+02 -1.969333E+03 -4.325815E+01 -1.008406E+01  2.046391E+02
         3   7 -3.498744E+01  4.797260E+00 -6.523918E+03  1.306043E+02 -6.681384E+00 -1.678665E+02
         3   8 -2.156941E+02 -1.021217E+03 -6.659888E+03 -5.162510E+02  1.198387E+02 -9.186656E+02
         4   1  5.419906E+01 -1.163264E+02 -2.203116E+03 -2.546688E+02 -1.847915E+01  8.788156E+01
         4   2 -3.938160E+01  5.959479E+01 -2.182976E+03  1.282687E+01 -1.533688E+01  3.805027E+01
         4   3  9.936217E+01  1.768236E+02 -6.989549E+03 -8.634520E+01  2.161050E+01  3.122723E+02
         4   4  1.732464E+01 -1.071100E+02 -6.994722E+03  1.029721E+01  4.263794E+01 -1.927877E+02
         4   5  8.596722E+01 -4.989662E+02 -1.969333E+03  4.325815E+01  1.008406E+01  2.046391E+02
         4   6  1.180204E+01 -1.141459E+02 -1.730338E+03  8.236544E+01  5.580087E+01  4.800607E+02
         4   7 -2.156941E+02 -1.021217E+03 -6.659888E+03  5.162510E+02 -1.198387E+02 -9.186656E+02
         4   8 -3.498744E+01  4.797260E+00 -6.523918E+03 -1.306043E+02  6.681384E+00 -1.678665E+02
         5   1  1.981763E+02  1.844004E+02  6.257720E+03  1.613287E+01 -2.409014E+00  1.100607E+03
         5   2  6.357280E+01  7.191162E+01  6.184251E+03  1.785153E+02 -4.262704E+01  8.418109E+02
         5   3 -4.224798E+01  1.543136E+02  1.370110E+03 -1.300916E+02  4.537864E+01  8.572096E+02
         5   4  4.524076E+01 -1.723288E+02  1.482606E+03  4.744266E+01  1.770850E+01  7.273900E+02
         5   5 -3.482025E+01  6.757832E+01  4.698426E+03 -5.400810E+01 -3.556970E+01  9.755021E+02
         5   6  4.192321E+01  1.717724E+02  4.792137E+03 -4.875947E+01 -2.521329E+01  1.076786E+03
         5   7 -1.479332E+01  1.528924E+02  9.693032E+02 -3.493777E+01 -9.424048E+00  1.013308E+03
         5   8 -1.037470E+02  5.015074E+01  7.377506E+02 -4.612923E+01  1.242017E+01  9.294419E+02
         6   1  6.357280E+01  7.191162E+01  6.184251E+03 -1.785153E+02  4.262704E+01  8.418109E+02
         6   2  1.981763E+02  1.844004E+02  6.257720E+03 -1.613287E+01  2.409014E+00  1.100607E+03
         6   3  4.524076E+01 -1.723288E+02  1.482606E+03 -4.744266E+01 -1.770850E+01  7.273900E+02
         6   4 -4.224798E+01  1.543136E+02  1.370110E+03  1.300916E+02 -4.537864E+01  8.572096E+02
         6   5  4.192321E+01  1.717724E+02  4.792137E+03  4.875947E+01  2.521329E+01  1.076786E+03
         6   6 -3.482025E+01  6.757832E+01  4.698426E+03  5.400810E+01  3.556970E+01  9.755021E+02
         6   7 -1.037470E+02  5.015074E+01  7.377506E+02  4.612923E+01 -1.242017E+01  9.294419E+02
         6   8 -1.479332E+01  1.528924E+02  9.693032E+02  3.493777E+01  9.424048E+00  1.013308E+03
         7   1 -1.050719E+02 -2.200097E+02 -1.888449E+03 -9.567210E+01  4.211658E+01  3.874190E+02
         7   2  1.552324E+01 -5.917943E+02 -1.857227E+03 -1.338554E+02  3.340951E+01  5.628414E+02
         7   3  9.868663E+01  1.518721E+02 -5.618227E+03  9.989806E+00  3.380404E+01 -4.592023E+02
         7   4 -3.444745E+02 -1.055248E+03 -6.412464E+03 -6.358931E+02  1.322413E+02  3.833607E+02
         7   5  2.099211E+01  1.484926E+02 -1.475738E+03  3.122120E+01  1.467765E+01  6.476060E+02
         7   6  1.157963E+02  4.503223E+02 -1.490867E+03  2.480175E+01  1.068837E+01  4.122855E+02
         7   7 -2.686581E+01 -9.555294E+01 -4.616782E+03  1.633054E+02  2.440845E+01 -3.021643E+02
         7   8  2.086765E+02  3.789834E+02 -4.361246E+03  2.410215E+02  1.387124E-01 -6.682742E+02
         8   1  1.552324E+01 -5.917943E+02 -1.857227E+03  1.338554E+02 -3.340951E+01  5.628414E+02
         8   2 -1.050719E+02 -2.200097E+02 -1.888449E+03  9.567210E+01 -4.211658E+01  3.874190E+02
         8   3 -3.444745E+02 -1.055248E+03 -6.412464E+03  6.358931E+02 -1.322413E+02  3.833607E+02
         8   4  9.868663E+01  1.518721E+02 -5.618227E+03 -9.989806E+00 -3.380404E+01 -4.592023E+02
         8   5  1.157963E+02  4.503223E+02 -1.490867E+03 -2.480175E+01 -1.068837E+01  4.122855E+02
         8   6  2.099211E+01  1.484926E+02 -1.475738E+03 -3.122120E+01 -1.467765E+01  6.476060E+02
         8   7  2.086765E+02  3.789834E+02 -4.361246E+03 -2.410215E+02 -1.387124E-01 -6.682742E+02
         8   8 -2.686581E+01 -9.555294E+01 -4.616782E+03 -1.633054E+02 -2.440845E+01 -3.021643E+02
         9   1 -4.770135E+00  2.841379E+02  3.581890E+03  2.951024E+01 -3.107681E+01  9.695615E+02
         9   2 -2.007959E+01  1.589086E+02  3.505009E+03 -1.437505E+01 -2.415956E+01  8.231628E+02
         9   3  2.581877E+01  2.842590E+02  6.420222E+02  6.484755E+01 -8.098526E+00  8.905996E+02
         9   4  1.210937E+02  4.087813E+02  9.037152E+02  2.086080E+01 -2.502704E+00  8.325161E+02
         9   5  1.250815E+01  1.848103E+02  2.123639E+03 -1.918795E+01 -4.821482E+01  6.903516E+02
         9   6  3.168771E+01  1.706917E+02  2.209116E+03 -3.668537E+01 -3.086425E+01  7.020349E+02
         9   7 -3.276711E+01  2.933362E+02  3.421198E+02 -5.884327E+01  1.032006E+01  9.145938E+02
         9   8 -1.366283E+02 -3.613274E+00  1.426643E+02  2.367717E+00  1.532613E+00  7.051618E+02
        10   1 -2.007959E+01  1.589086E+02  3.505009E+03  1.437505E+01  2.415956E+01  8.231628E+02
        10   2 -4.770135E+00  2.841379E+02  3.581890E+03 -2.951024E+01  3.107681E+01  9.695615E+02
        10   3  1.210937E+02  4.087813E+02  9.037152E+02 -2.086080E+01  2.502704E+00  8.325161E+02
        10   4  2.581877E+01  2.842590E+02  6.420222E+02 -6.484755E+01  8.098526E+00  8.905996E+02
        10   5  3.168771E+01  1.706917E+02  2.209116E+03  3.668537E+01  3.086425E+01  7.020349E+02
        10   6  1.250815E+01  1.848103E+02  2.123639E+03  1.918795E+01  4.821482E+01  6.903516E+02
        10   7 -1.366283E+02 -3.613274E+00  1.426643E+02 -2.367717E+00 -1.532613E+00  7.051618E+02
        10   8 -3.276711E+01  2.933362E+02  3.421198E+02  5.884327E+01 -1.032006E+01  9.145938E+02
        11   1  3.509366E+01  2.651977E+02 -1.229037E+03 -3.339328E+00 -6.028988E+00  5.531573E+02
        11   2 -1.606842E+02 -2.489470E+02 -1.249091E+03 -3.811315E+00  2.444872E+00  6.097136E+02
        11   3  1.107252E+01 -3.961630E+00 -3.527799E+03 -2.382284E+02  4.200651E+01 -2.923923E+02
        11   4 -1.277288E+02 -3.392001E+02 -3.605396E+03 -7.171545E+01  3.831913E+01 -2.489490E+02
        11   5 -7.293628E+01  1.514696E+02 -8.384263E+02 -1.053051E+01 -6.036401E+00  6.875129E+02
        11   6  1.801968E+02  7.190713E+02 -7.472094E+02  2.472854E+01 -4.872461E+00  4.824760E+02
        11   7  7.360957E+00 -3.085502E+01 -2.175526E+03  3.090384E+02 -5.921027E+01 -1.970542E+02
        11   8  1.815579E+02  3.947908E+02 -2.173595E+03  4.723895E+01  9.968445E+00 -6.442462E+01
        12   1 -1.606842E+02 -2.489470E+02 -1.249091E+03  3.811315E+00 -2.444872E+00  6.097136E+02
        12   2  3.509366E+01  2.651977E+02 -1.229037E+03  3.339328E+00  6.028988E+00  5.531573E+02
        12   3 -1.277288E+02 -3.392001E+02 -3.605396E+03  7.171545E+01 -3.831913E+01 -2.489490E+02
        12   4  1.107252E+01 -3.961630E+00 -3.527799E+03  2.382284E+02 -4.200651E+01 -2.923923E+02
        12   5  1.801968E+02  7.190713E+02 -7.472094E+02 -2.472854E+01  4.872461E+00  4.824760E+02
        12   6 -7.293628E+01  1.514696E+02 -8.384263E+02  1.053051E+01  6.036401E+00  6.875129E+02
        12   7  1.815579E+02  3.947908E+02 -2.173595E+03 -4.723895E+01 -9.968445E+00 -6.442462E+01
        12   8  7.360957E+00 -3.085502E+01 -2.175526E+03 -3.090384E+02  5.921027E+01 -1.970542E+02
        13   1 -7.335266E+00  1.551173E+02  9.890021E+02  5.114321E+00 -1.021146E+01  5.863074E+02
        13   2 -4.701421E+01  1.480226E+02  9.235182E+02  1.800542E+01 -2.331499E+01  4.930983E+02
        13   3  1.004693E+01  3.122030E+02  7.685553E+01  2.122474E+01 -8.806993E+00  8.309534E+02
        13   4  1.074005E+02  4.908827E+02  3.058730E+02  4.013987E+01 -3.067808E-01  8.852169E+02
        13   5 -6.671034E+01  1.008112E+02 -2.285068E+02  3.588383E+00 -4.514259E+01  1.884991E+02
        13   6 -6.683622E+01  1.464704E+02 -1.950302E+02  6.998874E+01 -4.568154E+01  1.820491E+02
        13   7  5.029455E+01  3.292330E+02 -2.524976E+02  1.670157E+02  6.064391E+01  5.395005E+02
        13   8 -1.967498E+02  4.200022E+02 -2.792080E+02 -7.342312E+01  6.866373E+01  3.234136E+02
        14   1 -4.701421E+01  1.480226E+02  9.235182E+02 -1.800542E+01  2.331499E+01  4.930983E+02
        14   2 -7.335266E+00  1.551173E+02  9.890021E+02 -5.114321E+00  1.021146E+01  5.863074E+02
        14   3  1.074005E+02  4.908827E+02  3.058730E+02 -4.013987E+01  3.067808E-01  8.852169E+02
        14   4  1.004693E+01  3.122030E+02  7.685553E+01 -2.122474E+01  8.806993E+00  8.309534E+02
        14   5 -6.683622E+01  1.464704E+02 -1.950302E+02 -6.998874E+01  4.568154E+01  1.820491E+02
        14   6 -6.671034E+01  1.008112E+02 -2.285068E+02 -3.588383E+00  4.514259E+01  1.884991E+02
        14   7 -1.967498E+02  4.200022E+02 -2.792080E+02  7.342312E+01 -6.866373E+01  3.234136E+02
        14   8  5.029455E+01  3.292330E+02 -2.524976E+02 -1.670157E+02 -6.064391E+01  5.395005E+02
        15   1  1.001575E+01  3.765969E+02 -5.586600E+02 -9.271173E+00  8.151080E+00  6.747668E+02
        15   2 -1.862256E+02 -2.122872E+02 -5.540307E+02 -2.946033E+01  1.443757E+01  6.952872E+02
        15   3  8.213261E+00  2.460435E+02 -1.214978E+03 -1.928456E+02  1.210309E+02  2.054481E+02
        15   4 -2.846976E+02 -7.024313E+02 -1.210332E+03 -2.637730E+02  9.898537E+01 -2.576827E+02
        15   5  7.146157E+01  3.617688E+02 -2.303576E+02  2.080680E+02  5.424362E+01  4.763751E+02
        15   6 -4.579762E+01  9.994127E+02 -1.718980E+02  1.393209E+02  3.643950E+01  4.602921E+02
        15   7 -4.407724E+01 -2.054171E+02 -5.390624E+01 -5.791224E+01  1.989774E+01  1.093521E+02
        15   8  5.403030E+02  2.231432E+03  2.769826E+02  1.004345E+03 -1.273932E+02  1.113200E+03
        16   1 -1.862256E+02 -2.122872E+02 -5.540307E+02  2.946033E+01 -1.443757E+01  6.952872E+02
        16   2  1.001575E+01  3.765969E+02 -5.586600E+02  9.271173E+00 -8.151080E+00  6.747668E+02
        16   3 -2.846976E+02 -7.024313E+02 -1.210332E+03  2.637730E+02 -9.898537E+01 -2.576827E+02
        16   4  8.213261E+00  2.460435E+02 -1.214978E+03  1.928456E+02 -1.210309E+02  2.054481E+02
        16   5 -4.579762E+01  9.994127E+02 -1.718980E+02 -1.393209E+02 -3.643950E+01  4.602921E+02
        16   6  7.146157E+01  3.617688E+02 -2.303576E+02 -2.080680E+02 -5.424362E+01  4.763751E+02
        16   7  5.403030E+02  2.231432E+03  2.769826E+02 -1.004345E+03  1.273932E+02  1.113200E+03
        16   8 -4.407724E+01 -2.054171E+02 -5.390624E+01  5.791224E+01 -1.989774E+01  1.093521E+02
        17   1 -7.154420E+01  4.970515E+00 -6.187704E+02  1.079107E+01  1.559249E+01 -6.661053E+01
        17   2 -6.379409E+01  6.054667E+01 -5.731863E+02  6.779606E+01 -5.519115E+00 -1.208670E+02
        17   3  6.208859E+01  1.359211E+02 -1.858954E+02  1.362652E+02 -1.127234E+02  6.310809E+01
        17   4 -1.745764E+02  3.715216E+02 -2.955636E+02 -9.351403E+01 -4.093390E+01  9.477840E+01
        17   5 -1.590059E+01 -1.035543E+02 -5.529589E+02  2.590721E+01 -2.263087E+01 -1.831845E+02
        17   6 -6.211501E+01 -9.914597E+01 -6.657824E+02  1.839187E+01 -1.005694E+01 -1.435833E+02
        17   7  3.583006E+01 -3.877424E+01 -4.248210E+01  2.528736E+01 -5.980495E-01 -9.235701E+01
        17   8  8.433768E+01  1.382366E+01  2.236659E+02  2.790636E+01 -5.574688E+00 -2.118177E+02
        18   1 -6.379409E+01  6.054667E+01 -5.731863E+02 -6.779606E+01  5.519115E+00 -1.208670E+02
        18   2 -7.154420E+01  4.970515E+00 -6.187704E+02 -1.079107E+01 -1.559249E+01 -6.661053E+01
        18   3 -1.745764E+02  3.715216E+02 -2.955636E+02  9.351403E+01  4.093390E+01  9.477840E+01
        18   4  6.208859E+01  1.359211E+02 -1.858954E+02 -1.362652E+02  1.127234E+02  6.310809E+01
        18   5 -6.211501E+01 -9.914597E+01 -6.657824E+02 -1.839187E+01  1.005694E+01 -1.435833E+02
        18   6 -1.590059E+01 -1.035543E+02 -5.529589E+02 -2.590721E+01  2.263087E+01 -1.831845E+02
        18   7  8.433768E+01  1.382366E+01  2.236659E+02 -2.790636E+01  5.574688E+00 -2.118177E+02
        18   8  3.583006E+01 -3.877424E+01 -4.248210E+01 -2.528736E+01  5.980495E-01 -9.235701E+01
        19   1  8.178900E+01  2.178832E+02  3.547613E+01  1.735091E+02 -1.327439E+02  1.537377E+02
        19   2 -6.433700E+01  6.946791E+02  1.768047E+02  1.166834E+02 -9.243222E+01 -1.140311E+02
        19   3 -4.106358E+01 -1.483130E+02  3.542350E+02 -7.400594E+01  3.059907E+01  3.279407E+02
        19   4  4.961666E+02  1.200177E+03  1.599949E+03  9.834564E+02 -1.954320E+02 -1.127006E+03
        19   5  4.054241E+01  9.276154E+01  2.312102E+02 -1.569672E+01 -4.830739E+00 -5.451952E+01
        19   6 -1.778833E+02 -4.489394E+02  2.047597E+02 -3.710702E+01  1.150581E+00  4.261212E+01
        19   7 -3.636265E+00  4.582124E+01  6.942328E+02 -2.387817E+02 -9.700615E+00 -6.029551E+01
        19   8 -2.626012E+02 -3.446277E+02  2.793471E+02 -2.403633E+02  1.966267E+01  5.709767E+02
        20   1 -6.433700E+01  6.946791E+02  1.768047E+02 -1.166834E+02  9.243222E+01 -1.140311E+02
        20   2  8.178900E+01  2.178832E+02  3.547613E+01 -1.735091E+02  1.327439E+02  1.537377E+02
        20   3  4.961666E+02  1.200177E+03  1.599949E+03 -9.834564E+02  1.954320E+02 -1.127006E+03
        20   4 -4.106358E+01 -1.483130E+02  3.542350E+02  7.400594E+01 -3.059907E+01  3.279407E+02
        20   5 -1.778833E+02 -4.489394E+02  2.047597E+02  3.710702E+01 -1.150581E+00  4.261212E+01
        20   6  4.054241E+01  9.276154E+01  2.312102E+02  1.569672E+01  4.830739E+00 -5.451952E+01
        20   7 -2.626012E+02 -3.446277E+02  2.793471E+02  2.403633E+02 -1.966267E+01  5.709767E+02
        20   8 -3.636265E+00  4.582124E+01  6.942328E+02  2.387817E+02  9.700615E+00 -6.029551E+01
        21   1  7.610598E+00  2.824293E+00 -4.455232E+02 -2.077368E+01  2.895253E+01 -7.427071E+01