
 displacements (vx,vy,vz) for set NALL and time  0.1000000E+01

         1  0.000000E+00  0.000000E+00  0.000000E+00
         2  0.000000E+00  0.000000E+00  0.000000E+00
         3  0.000000E+00  0.000000E+00  0.000000E+00
         4  0.000000E+00  0.000000E+00  0.000000E+00
         5  4.502485E-02 -4.667053E-02  7.141932E-02
         6  4.801456E-02 -4.646938E-02  6.025458E-02
         7  4.894173E-02 -4.183115E-02  7.229583E-02
         8  4.404301E-02 -4.187520E-02  8.319070E-02
         9  0.000000E+00  0.000000E+00  0.000000E+00
        10  0.000000E+00  0.000000E+00  0.000000E+00
        11  0.000000E+00  0.000000E+00  0.000000E+00
        12  0.000000E+00  0.000000E+00  0.000000E+00
        13  0.000000E+00  0.000000E+00  0.000000E+00
        14  0.000000E+00  0.000000E+00  0.000000E+00
        15  0.000000E+00  0.000000E+00  0.000000E+00
        16  0.000000E+00  0.000000E+00  0.000000E+00
        17  0.000000E+00  0.000000E+00  0.000000E+00
        18  0.000000E+00  0.000000E+00  0.000000E+00
        19  0.000000E+00  0.000000E+00  0.000000E+00
        20  0.000000E+00  0.000000E+00  0.000000E+00
        21  4.536646E-02 -4.642308E-02  6.821546E-02
        22  4.643757E-02 -4.673739E-02  6.555118E-02
        23  4.762192E-02 -4.643412E-02  6.265005E-02
        24  4.846719E-02 -4.599876E-02  6.307767E-02
        25  4.924192E-02 -4.453833E-02  6.636593E-02
        26  4.907805E-02 -4.273357E-02  6.910921E-02
        27  4.808228E-02 -4.153182E-02  7.468835E-02
        28  4.639915E-02 -4.106871E-02  7.759366E-02
        29  4.475777E-02 -4.161660E-02  8.010897E-02
        30  4.394029E-02 -4.267674E-02  7.996449E-02
        31  4.373098E-02 -4.436419E-02  7.737387E-02
        32  4.437871E-02 -4.602222E-02  7.412782E-02
        33  2.780351E-03 -3.188424E-03  1.522082E-03
        34  3.945238E-03 -4.466237E-03  5.751951E-03
        35  4.856756E-03 -5.375626E-03  9.861654E-03
        36  6.010158E-03 -6.491215E-03  1.366037E-02
        37  7.485217E-03 -7.959992E-03  1.749791E-02
        38  9.283654E-03 -9.668590E-03  2.142331E-02
        39  1.152986E-02 -1.162244E-02  2.530875E-02
        40  1.426818E-02 -1.389761E-02  2.908121E-02
        41  1.752543E-02 -1.661301E-02  3.279366E-02
        42  2.126583E-02 -1.991313E-02  3.649532E-02
        43  2.552457E-02 -2.395003E-02  4.037703E-02
        44  3.012875E-02 -2.830276E-02  4.461090E-02
        45  3.488001E-02 -3.280318E-02  4.887424E-02
        46  3.986640E-02 -3.786056E-02  5.346207E-02
        47  4.407798E-02 -4.209294E-02  5.811359E-02
        48  3.801979E-02 -4.268709E-02  6.884670E-02
        49  3.190580E-02 -3.858726E-02  6.348393E-02
        50  2.727749E-02 -3.344116E-02  5.830840E-02
        51  2.281884E-02 -2.892324E-02  5.374015E-02
        52  1.846228E-02 -2.475269E-02  4.907386E-02
        53  1.436690E-02 -2.099559E-02  4.447301E-02
        54  1.063023E-02 -1.778933E-02  3.983704E-02
        55  7.350423E-03 -1.509739E-02  3.515638E-02
        56  4.519874E-03 -1.289776E-02  3.033458E-02
        57  2.229437E-03 -1.086151E-02  2.538701E-02
        58  4.590361E-04 -8.923304E-03  2.059893E-02
        59 -8.856009E-04 -7.292989E-03  1.613646E-02
        60 -1.924818E-03 -6.152900E-03  1.176475E-02
        61 -2.597787E-03 -5.311116E-03  7.039235E-03
        62 -2.426682E-03 -3.887906E-03  1.987397E-03
        63  3.479441E-03  2.835763E-03  1.986993E-03
        64  4.786000E-03  3.120313E-03  7.038074E-03
        65  5.638155E-03  2.443276E-03  1.176523E-02
        66  6.797713E-03  1.367434E-03  1.616024E-02
        67  8.260143E-03  3.217855E-05  2.057527E-02
        68  1.007503E-02 -1.627723E-03  2.507172E-02
        69  1.231410E-02 -3.609016E-03  2.955339E-02
        70  1.512747E-02 -5.912024E-03  3.395830E-02
        71  1.868142E-02 -8.475914E-03  3.854708E-02
        72  2.255021E-02 -1.148905E-02  4.352357E-02
        73  2.657706E-02 -1.516446E-02  4.861833E-02
        74  3.087315E-02 -1.945902E-02  5.366424E-02
        75  3.540570E-02 -2.417984E-02  5.832792E-02
        76  4.071322E-02 -2.872147E-02  6.323553E-02
        77  4.514220E-02 -3.475607E-02  6.901720E-02
        78 -3.125824E-03  3.535910E-03  2.452044E-03
        79 -3.438742E-03  3.964433E-03  8.326339E-03
        80 -2.711388E-03  3.221709E-03  1.367645E-02
        81 -1.673645E-03  2.164463E-03  1.870163E-02
        82 -2.570246E-04  8.112715E-04  2.378871E-02
        83  1.524770E-03 -7.668602E-04  2.896985E-02
        84  3.610317E-03 -2.454532E-03  3.434699E-02
        85  6.152770E-03 -4.623871E-03  4.002673E-02
        86  9.352351E-03 -7.430240E-03  4.581537E-02
        87  1.315535E-02 -1.072980E-02  5.150300E-02
        88  1.730083E-02 -1.449615E-02  5.706016E-02
        89  2.167625E-02 -1.869156E-02  6.253909E-02
        90  2.636152E-02 -2.328272E-02  6.787676E-02
        91  3.098283E-02 -2.793205E-02  7.356311E-02
        92  3.704002E-02 -3.434912E-02  7.982940E-02
        93  0.000000E+00  0.000000E+00  0.000000E+00
        94  0.000000E+00  0.000000E+00  0.000000E+00
        95  0.000000E+00  0.000000E+00  0.000000E+00
        96  0.000000E+00  0.000000E+00  0.000000E+00
        97  0.000000E+00  0.000000E+00  0.000000E+00
        98  4.634509E-02 -4.583867E-02  6.852260E-02
        99  4.480207E-02 -4.423373E-02  7.426310E-02
       100  4.620913E-02 -4.421612E-02  7.211497E-02
       101  4.807157E-02 -4.427447E-02  6.896618E-02
       102  4.630922E-02 -4.238927E-02  7.454989E-02
       103  2.269858E-04 -4.163098E-03  2.790966E-03
       104 -1.448119E-03 -4.665344E-03  7.025411E-03
       105  6.610155E-04 -4.991489E-03  6.801365E-03
       106  2.907813E-03 -4.409454E-03  6.389265E-03
       107  1.451240E-03 -5.913070E-03  1.068618E-02
       108  4.970072E-04 -6.877013E-03  1.550072E-02
       109  2.553670E-03 -7.203320E-03  1.488777E-02
       110  4.728964E-03 -6.625834E-03  1.425729E-02
       111  3.999193E-03 -8.701263E-03  1.915166E-02
       112  3.669480E-03 -1.014674E-02  2.443263E-02
       113  5.805793E-03 -1.039494E-02  2.346588E-02
       114  8.061321E-03 -9.745865E-03  2.245177E-02
       115  8.045856E-03 -1.232656E-02  2.780447E-02
       116  8.717174E-03 -1.435447E-02  3.361352E-02
       117  1.079743E-02 -1.459308E-02  3.209401E-02
       118  1.300548E-02 -1.399859E-02  3.057882E-02
       119  1.406319E-02 -1.729916E-02  3.632155E-02
       120  1.572620E-02 -2.028061E-02  4.251231E-02
       121  1.778429E-02 -2.054098E-02  4.053383E-02
       122  2.001728E-02 -1.996627E-02  3.851422E-02
       123  2.182545E-02 -2.431398E-02  4.477549E-02
       124  2.414623E-02 -2.829400E-02  5.142283E-02
       125  2.613808E-02 -2.873518E-02  4.905889E-02
       126  2.859738E-02 -2.833088E-02  4.687306E-02
       127  3.083946E-02 -3.345246E-02  5.365536E-02
       128  3.331572E-02 -3.827521E-02  6.078495E-02
       129  3.586466E-02 -3.883823E-02  5.813889E-02
       130  3.843900E-02 -3.806231E-02  5.576379E-02
       131  4.104427E-02 -4.281318E-02  6.301741E-02
       132  4.432540E-03 -2.263132E-04  2.781235E-03
       133  4.500023E-03 -3.282411E-03  6.423309E-03
       134  5.231974E-03 -6.597959E-04  6.848631E-03
       135  4.754662E-03  1.824292E-03  7.059832E-03
       136  6.146383E-03 -1.452488E-03  1.066629E-02
       137  6.691216E-03 -5.056314E-03  1.424772E-02
       138  7.470837E-03 -2.551257E-03  1.487985E-02
       139  6.932626E-03 -1.648439E-04  1.549922E-02
       140  8.947215E-03 -3.951939E-03  1.910752E-02
       141  9.940206E-03 -8.277723E-03  2.235413E-02
       142  1.072467E-02 -5.637776E-03  2.327178E-02
       143  1.019354E-02 -3.126732E-03  2.417612E-02
       144  1.296070E-02 -7.610674E-03  2.741606E-02
       145  1.492235E-02 -1.248544E-02  3.032200E-02
       146  1.571843E-02 -9.913899E-03  3.156364E-02
       147  1.521352E-02 -7.429910E-03  3.275971E-02
       148  1.902608E-02 -1.269815E-02  3.574667E-02
       149  2.197047E-02 -1.853414E-02  3.826208E-02
       150  2.292245E-02 -1.599394E-02  3.996810E-02
       151  2.258193E-02 -1.324916E-02  4.177707E-02
       152  2.720393E-02 -1.967271E-02  4.450945E-02
       153  3.086951E-02 -2.659792E-02  4.688196E-02
       154  3.165390E-02 -2.381338E-02  4.916515E-02
       155  3.105919E-02 -2.114309E-02  5.141044E-02
       156  3.607744E-02 -2.835736E-02  5.369292E-02
       157  4.062236E-02 -3.626179E-02  5.571032E-02
       158  4.156063E-02 -3.328290E-02  5.799657E-02
       159  4.088425E-02 -3.051071E-02  6.060378E-02
       160  4.571322E-02 -3.869877E-02  6.320765E-02
       161  2.265871E-04  4.344974E-03  3.338856E-03
       162  3.385345E-03  3.602720E-03  7.693534E-03
       163  6.607251E-04  4.314409E-03  8.099205E-03
       164 -1.925612E-03  3.858481E-03  8.332190E-03
       165  1.448715E-03  3.601165E-03  1.256680E-02
       166  5.150559E-03  1.975284E-03  1.675679E-02
       167  2.548359E-03  2.690203E-03  1.740756E-02
       168  6.595881E-05  2.225645E-03  1.803015E-02
       169  3.993439E-03  1.349979E-03  2.224861E-02
       170  8.498249E-03 -1.071813E-03  2.609652E-02
       171  5.808522E-03 -3.136799E-04  2.709703E-02
       172  3.208060E-03 -7.791269E-04  2.804059E-02
       173  8.114663E-03 -2.239732E-03  3.200229E-02
       174  1.354169E-02 -5.294306E-03  3.548204E-02
       175  1.093277E-02 -4.400462E-03  3.695029E-02
       176  8.114430E-03 -4.684184E-03  3.851541E-02
       177  1.413550E-02 -6.919150E-03  4.221600E-02
       178  2.069016E-02 -1.087068E-02  4.555488E-02
       179  1.779995E-02 -1.014198E-02  4.759563E-02
       180  1.503090E-02 -1.066227E-02  4.954384E-02
       181  2.189939E-02 -1.399873E-02  5.280759E-02
       182  2.910049E-02 -1.890386E-02  5.583499E-02
       183  2.628896E-02 -1.815902E-02  5.802650E-02
       184  2.360080E-02 -1.864094E-02  6.027689E-02
       185  3.095984E-02 -2.290087E-02  6.321110E-02
       186  3.884917E-02 -2.811400E-02  6.570563E-02
       187  3.587743E-02 -2.726930E-02  6.814841E-02
       188  3.292272E-02 -2.784374E-02  7.086386E-02
       189  4.105610E-02 -3.356484E-02  7.395686E-02
       190 -4.614541E-03 -2.263400E-04  3.330913E-03
       191 -3.950290E-03  2.304603E-03  8.364204E-03
       192 -4.557081E-03 -6.600427E-04  8.146928E-03
       193 -3.694128E-03 -3.764006E-03  7.726726E-03
       194 -3.831665E-03 -1.450095E-03  1.254306E-02
       195 -2.278640E-03  2.657347E-04  1.803392E-02
       196 -2.963219E-03 -2.542708E-03  1.740816E-02
       197 -2.041068E-03 -5.476059E-03  1.674629E-02
       198 -1.621061E-03 -3.874139E-03  2.230010E-02
       199  8.867256E-04 -2.586550E-03  2.810730E-02
       200  6.001904E-05 -5.499569E-03  2.717076E-02
       201  8.907806E-04 -8.876896E-03  2.631560E-02
       202  2.091821E-03 -7.535330E-03  3.235318E-02
       203  5.507201E-03 -6.755767E-03  3.883861E-02
       204  4.846271E-03 -9.904823E-03  3.766956E-02
       205  5.907306E-03 -1.317454E-02  3.640470E-02
       206  8.203824E-03 -1.262583E-02  4.281556E-02
       207  1.260020E-02 -1.276444E-02  4.972582E-02
       208  1.194301E-02 -1.586415E-02  4.796836E-02
       209  1.296028E-02 -1.907684E-02  4.621647E-02
       210  1.608055E-02 -1.960327E-02  5.305309E-02
       211  2.106681E-02 -2.075609E-02  6.034092E-02
       212  2.041501E-02 -2.382320E-02  5.811717E-02
       213  2.141968E-02 -2.702938E-02  5.593228E-02
       214  2.513098E-02 -2.840624E-02  6.321180E-02
       215  3.029062E-02 -3.003856E-02  7.080762E-02
       216  2.944572E-02 -3.327917E-02  6.809011E-02
       217  3.060299E-02 -3.673954E-02  6.576229E-02
       218  3.589512E-02 -3.864521E-02  7.401123E-02
       219  1.006974E-04 -1.013196E-04  4.371469E-03
       220  5.384260E-04 -3.192817E-03  7.221209E-03
       221 -2.121648E-03 -5.373451E-04  7.914599E-03
       222  4.548910E-04 -4.552256E-04  7.448623E-03
       223  3.188523E-03 -5.379346E-04  7.252909E-03
       224  5.377699E-04  2.126079E-03  7.882798E-03
       225  1.249900E-03 -1.248882E-03  1.158441E-02
       226  2.452861E-03 -5.194010E-03  1.548276E-02
       227 -4.108755E-04 -2.448530E-03  1.673659E-02
       228  2.366952E-03 -2.367840E-03  1.607739E-02
       229  5.243354E-03 -2.452025E-03  1.547438E-02
       230  2.450140E-03  3.517739E-04  1.673880E-02
       231  3.775636E-03 -3.766970E-03  2.075656E-02
       232  5.663176E-03 -8.408895E-03  2.438463E-02
       233  2.693577E-03 -5.514578E-03  2.627234E-02
       234  5.550687E-03 -5.449616E-03  2.530511E-02
       235  8.520764E-03 -5.535316E-03  2.428714E-02
       236  5.646394E-03 -2.622783E-03  2.619940E-02
       237  7.765115E-03 -7.390253E-03  2.991793E-02
       238  1.061587E-02 -1.257022E-02  3.333756E-02
       239  7.660356E-03 -9.767046E-03  3.612008E-02
       240  1.047740E-02 -9.656719E-03  3.459113E-02
       241  1.347824E-02 -9.753912E-03  3.307304E-02
       242  1.063374E-02 -6.850524E-03  3.580448E-02
       243  1.377853E-02 -1.234714E-02  3.931108E-02
       244  1.766973E-02 -1.850764E-02  4.228036E-02
       245  1.473795E-02 -1.568182E-02  4.600003E-02
       246  1.755207E-02 -1.554200E-02  4.403614E-02
       247  2.056063E-02 -1.569400E-02  4.203625E-02
       248  1.766266E-02 -1.275656E-02  4.580601E-02
       249  2.168449E-02 -1.931603E-02  4.882333E-02
       250  2.616463E-02 -2.655663E-02  5.135124E-02
       251  2.324292E-02 -2.370195E-02  5.583610E-02
       252  2.609871E-02 -2.358020E-02  5.356446E-02
       253  2.909979E-02 -2.369061E-02  5.135763E-02
       254  2.618046E-02 -2.078027E-02  5.579378E-02
       255  3.073771E-02 -2.818348E-02  5.851879E-02
       256  3.573460E-02 -3.627796E-02  6.056884E-02
       257  3.256343E-02 -3.317918E-02  6.558725E-02
       258  3.562730E-02 -3.311273E-02  6.302696E-02
       259  3.884539E-02 -3.318842E-02  6.051211E-02
       260  3.573106E-02 -3.008107E-02  6.559347E-02
       261  4.089754E-02 -3.843387E-02  6.788642E-02

 stresses (elem, integ.pnt.,sxx,syy,szz,sxy,sxz,syz) for set EALL and time  0.1000000E+01

         1   1  6.029549E+01  8.576789E+01  3.482862E+02 -1.409794E+02 -3.018846E+02 -4.024562E+02
         1   2 -2.065842E+02 -2.235831E+02  1.422801E+02 -9.065906E+01 -1.627805E+01 -3.973634E+02
         1   3 -3.621464E+02 -3.648152E+02 -4.233304E+01 -1.213028E+02 -4.424644E+02 -7.469929E+01
         1   4 -9.344568E+02 -9.617863E+02 -4.485342E+02 -3.823554E+01 -3.989815E+01 -4.152238E+01
         1   5  2.151717E+02  2.194465E+02  8.331519E+02 -1.538836E+02  9.354559E+01  8.868636E+01
         1   6  2.873132E+02 -1.868534E+01  2.059797E+02 -1.625846E+02  6.590038E+01  1.361630E+02
         1   7 -9.552956E+01  1.967187E+02 -1.029607E+02 -1.563338E+02  1.315677E+02  6.232869E+01
         1   8 -4.204047E+02 -3.719594E+02 -9.366590E+02 -4.282144E+01  7.419138E+01  9.142558E+01
         2   1 -2.276187E+02 -2.437225E+02  1.066351E+02  1.007869E+02  4.643852E+01 -3.865573E+02
         2   2  9.466452E+01  1.083309E+02  3.321757E+02  1.496715E+02  3.098730E+02 -3.420257E+02
         2   3 -9.736305E+02 -9.886158E+02 -4.919611E+02  3.407810E+01  3.915806E+01 -3.962000E+01
         2   4 -3.009211E+02 -2.878531E+02 -4.795747E+00  1.157439E+02  4.052087E+02 -6.124812E+01
         2   5  2.864284E+02 -6.607057E+01  1.253300E+02  1.602573E+02 -6.295024E+01  1.282553E+02
         2   6  2.358875E+02  2.381729E+02  8.019275E+02  1.715590E+02 -8.358230E+01  8.259835E+01
         2   7 -4.503478E+02 -4.563963E+02 -1.037953E+03  3.313682E+01 -8.859071E+01  8.787225E+01
         2   8 -7.969809E+01  2.626300E+02 -2.244278E+01  1.667796E+02 -1.298672E+02  5.874157E+01
         3   1 -3.417008E+02 -3.435866E+02 -6.363431E+00  1.109762E+02 -4.533462E+02  4.479663E+01
         3   2 -9.074146E+02 -9.220406E+02 -4.048634E+02  4.206338E+01 -4.197507E+01  4.224632E+01
         3   3  3.852267E+01  5.203976E+01  3.650479E+02  1.323689E+02 -3.622283E+02  3.945600E+02
         3   4 -2.839729E+02 -2.849965E+02  1.044405E+02  9.623727E+01 -3.009552E+01  4.345986E+02
         3   5 -4.795692E+01  1.968590E+02 -2.214641E+01  1.586059E+02  1.395836E+02 -6.468866E+01
         3   6 -3.360284E+02 -3.415503E+02 -8.349644E+02  5.175156E+01  7.737032E+01 -7.666372E+01
         3   7  1.978736E+02  1.995102E+02  8.658472E+02  1.370493E+02  1.006212E+02 -9.895330E+01
         3   8  2.188432E+02 -3.657730E+01  1.249686E+02  1.525360E+02  6.859021E+01 -1.380291E+02
         4   1 -9.465510E+02 -9.488192E+02 -4.483286E+02 -3.813637E+01  4.112483E+01  4.024154E+01
         4   2 -2.805229E+02 -2.666657E+02  3.106480E+01 -1.054435E+02  4.160497E+02  3.125502E+01
         4   3 -3.048738E+02 -3.051510E+02  6.862603E+01 -1.064196E+02  6.003219E+01  4.237244E+02
         4   4  7.275085E+01  7.426462E+01  3.486230E+02 -1.409797E+02  3.702854E+02  3.340700E+02
         4   5 -3.657881E+02 -4.255825E+02 -9.361783E+02 -4.270754E+01 -9.198660E+01 -7.334618E+01
         4   6 -3.206861E+01  2.633042E+02  5.834719E+01 -1.690216E+02 -1.378757E+02 -6.135490E+01
         4   7  2.183521E+02 -8.377056E+01  4.417051E+01 -1.500510E+02 -6.618527E+01 -1.302435E+02
         4   8  2.179291E+02  2.174764E+02  8.335816E+02 -1.541516E+02 -9.033228E+01 -9.279180E+01
         5   1 -7.140538E+01 -9.704280E+01  4.135832E+02 -3.389939E+01  3.029915E+01  4.408660E+01
         5   2  3.391245E+02 -1.277979E+02  1.491453E+02 -1.256368E+02 -1.975938E+01  1.794073E+01
         5   3 -8.654738E+01  4.031832E+02 -1.148777E+02 -6.571856E+01  2.104722E+01 -1.577868E+01
         5   4 -1.234495E+02  4.708217E+00 -4.481050E+02 -1.256510E+01 -3.681149E+01 -2.802740E+01
         5   5  7.846233E+01  8.613545E+01  4.536047E+02 -9.909326E+01 -1.745825E+01 -2.164065E+01
         5   6  2.959220E+02 -6.815348E+01  1.894872E+02 -1.428468E+02 -1.844959E+01 -2.651565E+01
         5   7 -1.109112E+02  2.856245E+02 -8.044461E+01 -1.091906E+02 -2.590131E+01 -1.941041E+01
         5   8 -3.104531E+02 -2.184366E+02 -5.676713E+02 -3.556378E+01 -1.896849E+01 -2.294328E+01
         6   1  3.759265E+02 -1.722100E+02  7.527294E+01  1.015881E+02  1.790635E+01  1.482172E+01
         6   2 -7.096195E+01 -8.249702E+01  4.136200E+02  4.815630E+01 -3.150035E+01  3.458734E+01
         6   3 -1.087069E+02 -9.403019E+01 -5.570238E+02 -8.154493E-01  3.395430E+01 -2.904808E+01
         6   4 -1.457666E+02  3.998250E+02 -6.532988E+01  9.082013E+01 -1.454909E+01 -1.617417E+01
         6   5  3.142905E+02 -1.251944E+02  1.081304E+02  1.229174E+02  2.016319E+01 -2.536650E+01
         6   6  9.640176E+01  9.780435E+01  4.648727E+02  1.144778E+02  1.943790E+01 -1.974945E+01
         6   7 -3.304758E+02 -3.298951E+02 -6.956957E+02  1.473642E+01  2.124221E+01 -2.308660E+01
         6   8 -1.257504E+02  3.166922E+02 -2.539279E+01  1.238941E+02  2.596366E+01 -2.107004E+01
         7   1 -4.165172E+01  3.674270E+02 -4.085103E+01  8.915929E+01  2.417287E+01  1.764866E+01
         7   2 -2.418782E+01 -9.658240E+00 -3.391242E+02  2.504316E+01 -3.591754E+01  3.135579E+01
         7   3 -8.509885E+01 -9.724154E+01  4.134198E+02  1.915811E+01  3.913610E+01 -4.306049E+01
         7   4  3.449434E+02 -6.747098E+01  1.006313E+02  1.001094E+02 -1.994029E+01 -2.352103E+01
         7   5 -5.619928E+01  2.675056E+02  5.289571E+00  1.269699E+02 -2.844824E+01  2.452548E+01
         7   6 -2.010943E+02 -2.024035E+02 -4.414807E+02  5.248896E+01 -2.008725E+01  2.047258E+01
         7   7  6.033432E+01  6.511837E+01  4.588212E+02  8.053019E+01 -2.520855E+01  2.492464E+01
         7   8  2.691487E+02 -4.916162E+01  1.376824E+02  1.236465E+02 -2.155890E+01  2.643850E+01
         8   1 -9.522902E+00 -1.084669E+02 -4.480969E+02 -1.284091E+01  3.283123E+01  3.216315E+01
         8   2 -1.010808E+02  3.634972E+02  8.051866E+00 -1.148849E+02 -1.763315E+01  1.724131E+01
         8   3  3.811745E+02 -1.118900E+02  2.678765E+01 -7.667477E+01  1.728064E+01 -2.053323E+01
         8   4 -8.460244E+01 -8.246709E+01  4.128965E+02 -3.382784E+01 -4.051656E+01 -3.370221E+01
         8   5 -2.209621E+02 -3.144133E+02 -5.706918E+02 -3.450856E+01  2.096764E+01  1.916977E+01
         8   6 -7.060528E+01  2.981407E+02  5.598166E+01 -1.437669E+02  2.720491E+01  1.999373E+01
         8   7  2.861751E+02 -1.067246E+02  5.201896E+01 -1.061710E+02  1.862060E+01  2.452310E+01
         8   8  7.901785E+01  7.865379E+01  4.554883E+02 -9.804898E+01  2.248046E+01  1.973479E+01
         9   1  1.477278E+02  1.582479E+02  5.315382E+02 -1.312816E+02 -5.144593E+00 -1.356263E+01
         9   2  2.831784E+02 -6.015160E+01  2.052575E+02 -1.588583E+02  1.167730E+01 -1.136951E+01
         9   3 -1.255619E+02  2.556148E+02 -9.331370E+01 -1.286181E+02 -1.293615E+01  1.242128E+01
         9   4 -4.285680E+02 -3.470917E+02 -6.701164E+02 -4.644882E+01 -2.530112E+00 -8.345789E-01
         9   5  1.055516E+02  9.830115E+01  5.247548E+02 -1.170392E+02  9.573039E+00 -4.585305E+00
         9   6  3.180384E+02 -8.845666E+01  2.178070E+02 -1.600880E+02  1.220225E+01  6.630257E+00
         9   7 -1.283295E+02  3.352106E+02 -1.316454E+02 -1.136129E+02  4.723650E+00 -1.112593E-01
         9   8 -3.712853E+02 -2.760913E+02 -6.800934E+02 -4.026285E+01  9.431529E-01  4.967346E+00
        10   1  2.942810E+02 -1.167933E+02  1.254544E+02  1.429612E+02 -7.963476E-01 -1.215488E+01
        10   2  1.671121E+02  1.695868E+02  5.550693E+02  1.494021E+02  1.000996E+01 -1.217474E+01
        10   3 -4.584305E+02 -4.617544E+02 -8.024212E+02  2.524024E+01 -6.196166E-01 -2.595456E+00
        10   4 -1.260920E+02  2.876085E+02 -2.122784E+01  1.455038E+02  8.898903E+00  2.418855E+00
        10   5  3.414362E+02 -1.251538E+02  1.471996E+02  1.460703E+02 -5.207293E+00  6.060425E+00
        10   6  1.186601E+02  1.174352E+02  5.469645E+02  1.327587E+02 -7.184691E+00  4.908164E+00
        10   7 -3.836761E+02 -3.772259E+02 -7.922738E+02  2.345880E+01 -8.723258E+00  5.106350E+00
        10   8 -1.308540E+02  3.446082E+02 -2.653893E+01  1.411277E+02 -8.559302E+00  4.277952E+00
        11   1 -5.237979E+01  2.377993E+02  2.223889E+01  1.458363E+02 -8.508018E+00  3.829461E+00
        11   2 -3.171369E+02 -3.169500E+02 -5.337569E+02  6.427046E+01 -4.416238E+00  1.552660E+00
        11   3  1.300017E+02  1.330232E+02  5.574478E+02  1.112103E+02 -7.715738E+00  8.876303E+00
        11   4  2.439600E+02 -4.977862E+01  1.432828E+02  1.434671E+02  2.945000E+00  8.983055E+00
        11   5 -9.863485E+00  3.163986E+02  4.957909E+01  1.412426E+02  1.028563E+01  6.814966E+00
        11   6 -2.652683E+02 -2.440635E+02 -5.339024E+02  6.354709E+01  4.900308E-01 -5.879897E+00
        11   7  8.106821E+01  7.892645E+01  5.503801E+02  9.472489E+01  9.936605E+00 -2.699675E+00
        11   8  2.899181E+02 -5.542558E+01  1.542122E+02  1.480100E+02  7.521147E+00 -6.040789E+00
        12   1 -3.422166E+02 -4.344176E+02 -6.736032E+02 -4.564451E+01 -2.223440E+00  9.455520E-01
        12   2 -6.511563E+01  2.752314E+02  6.183404E+01 -1.604329E+02  8.974340E+00 -4.938361E+00
        12   3  2.573909E+02 -1.125895E+02  5.106489E+01 -1.254934E+02 -6.179700E+00  9.498097E+00
        12   4  1.542758E+02  1.484065E+02  5.412513E+02 -1.305358E+02  8.564453E+00  9.104895E+00
        12   5 -2.675619E+02 -3.610209E+02 -6.703514E+02 -4.443570E+01 -8.839710E+00 -5.467834E+00
        12   6 -6.923434E+01  3.267804E+02  5.366451E+01 -1.555105E+02 -7.907365E+00 -5.662067E+00
        12   7  3.084399E+02 -1.214840E+02  6.065811E+01 -1.205200E+02 -3.907453E+00 -4.006108E+00
        12   8  1.060143E+02  1.018122E+02  5.295854E+02 -1.151959E+02 -5.346429E+00 -4.312526E+00
        13   1  8.526682E+01  8.445648E+01  5.259153E+02 -1.096631E+02  6.627240E+00 -7.493249E+00
        13   2  3.243065E+02 -9.653674E+01  2.281451E+02 -1.503898E+02 -3.169902E-01  5.496190E+00
        13   3 -1.611204E+02  2.988111E+02 -1.618530E+02 -1.168528E+02  3.156477E+00 -2.071291E+01
        13   4 -3.306597E+02 -2.505028E+02 -6.429222E+02 -3.652824E+01 -2.256002E-01  3.223425E+00
        13   5  9.357515E+01  9.941153E+01  5.265214E+02 -1.060246E+02  1.556313E+00  6.822761E+00
        13   6  3.074219E+02 -7.156469E+01  2.268958E+02 -1.488404E+02 -2.859367E+00  6.964784E+00
        13   7 -1.230632E+02  2.637384E+02 -1.408006E+02 -1.196754E+02  5.900302E+00 -5.031260E+00
        13   8 -3.257905E+02 -2.347313E+02 -5.922244E+02 -3.538248E+01 -3.514425E-01  7.031440E+00
        14   1  3.426411E+02 -1.366353E+02  1.463432E+02  1.406048E+02 -5.021122E+00  4.720416E+00
        14   2  9.255164E+01  8.928510E+01  5.144372E+02  1.233212E+02 -5.991165E+00  4.155447E+00
        14   3 -3.610284E+02 -3.585225E+02 -7.653493E+02  2.108259E+01 -6.811675E+00  5.773055E+00
        14   4 -1.456937E+02  3.432153E+02 -3.847498E+01  1.355817E+02 -4.727269E+00  1.876464E+00
        14   5  3.252409E+02 -1.185927E+02  1.280092E+02  1.284354E+02 -4.552990E+00  3.686148E+00
        14   6  1.147863E+02  1.141936E+02  4.929764E+02  1.259254E+02 -1.034523E+00  2.540946E+00
        14   7 -3.563266E+02 -3.715286E+02 -7.560598E+02  1.722646E+01 -6.507033E+00  7.287866E+00
        14   8 -1.370162E+02  3.196757E+02 -4.714850E+01  1.315326E+02 -4.481651E-01  2.410062E+00
        15   1 -4.873189E+01  2.789628E+02  1.428373E+01  1.443805E+02 -1.318658E+00 -1.662780E+00
        15   2 -2.279841E+02 -2.235029E+02 -4.991983E+02  5.922940E+01  2.594755E+00 -4.377615E-01
        15   3  5.433585E+01  6.481383E+01  5.346686E+02  8.705647E+01  5.638364E+00  8.199792E+00
        15   4  3.030226E+02 -6.597823E+01  1.550093E+02  1.336880E+02  1.614560E+01 -1.038678E-01
        15   5 -7.192026E+01  2.364953E+02 -4.025563E+01  1.349871E+02  1.870634E+00 -1.712007E+01
        15   6 -2.275120E+02 -2.191310E+02 -4.752908E+02  5.067459E+01  1.430348E+00  6.788443E-01
        15   7  7.117619E+01  8.402846E+01  5.293691E+02  8.888978E+01 -4.589147E+00 -5.217665E+00
        15   8  2.967184E+02 -6.485900E+01  1.198706E+02  1.213934E+02  2.908160E+00 -2.334954E+00
        16   1 -2.454342E+02 -3.514096E+02 -6.393749E+02 -4.218983E+01 -5.334395E+00  1.260319E+00
        16   2 -8.374679E+01  3.222287E+02  4.504848E+01 -1.543321E+02 -5.493340E+00  2.388584E+00
        16   3  3.121906E+02 -1.220935E+02  7.854649E+01 -1.147845E+02  6.683278E+00 -4.024721E+00
        16   4  7.211460E+01  6.997581E+01  5.047753E+02 -1.058756E+02 -5.605496E+00 -2.658403E+00
        16   5 -2.375096E+02 -3.688504E+02 -6.224400E+02 -3.896795E+01 -5.195398E+00  3.524192E+00
        16   6 -6.934199E+01  3.019931E+02  4.388257E+01 -1.585080E+02 -2.370038E+00 -1.195318E+00
        16   7  3.150592E+02 -6.208601E+01  1.087728E+02 -1.126726E+02  1.286896E+01 -5.264237E+00
        16   8  9.052714E+01  8.770788E+01  4.979220E+02 -1.051039E+02  1.373385E+00 -4.783538E+00
        17   1  8.755435E+01  9.143812E+01  5.066530E+02 -9.998638E+01 -2.288083E+00  5.182706E+00
        17   2  2.824892E+02 -7.493818E+01  2.105208E+02 -1.508593E+02  1.830739E+00  3.866752E+00
        17   3 -8.048749E+01  2.886860E+02 -1.174188E+02 -1.090560E+02  3.561417E+00  8.705846E+00
        17   4 -3.424287E+02 -2.219615E+02 -5.712829E+02 -3.392297E+01  5.599425E+00  8.557624E+00
        17   5  8.077861E+01  8.665033E+01  4.894640E+02 -9.824133E+01  2.859524E+00  6.643627E-01
        17   6  2.744529E+02 -7.602051E+01  2.003108E+02 -1.451162E+02  1.329970E+00 -1.375722E+00
        17   7 -9.575166E+01  2.645175E+02 -1.306886E+02 -1.003635E+02  2.540389E+00  3.254051E+00
        17   8 -3.314213E+02 -1.994452E+02 -5.613318E+02 -3.030283E+01  7.574309E+00  5.353108E+00
        18   1  3.043331E+02 -1.226754E+02  1.113734E+02  1.259281E+02 -1.724448E-01  5.101609E+00
        18   2  1.070489E+02  1.055673E+02  4.823107E+02  1.232765E+02  1.583718E-01  3.331398E+00
        18   3 -3.666359E+02 -3.743689E+02 -7.452310E+02  1.367614E+01  5.348966E-01  7.381128E+00
        18   4 -1.275571E+02  3.084380E+02 -3.172122E+01  1.265622E+02 -3.242844E+00 -3.630319E+00
        18   5  3.020012E+02 -1.207659E+02  1.071152E+02  1.298725E+02 -3.529092E+00  1.698355E+00
        18   6  9.500069E+01  9.207291E+01  4.734039E+02  1.158131E+02 -4.528226E+00 -1.380563E+00
        18   7 -3.650114E+02 -3.484181E+02 -7.338545E+02  1.142681E+01  3.806189E+00  5.331507E+00
        18   8 -7.525555E+01  3.325624E+02  1.745933E+00  1.243788E+02 -3.222727E+00 -1.182966E+01
        19   1 -4.111970E+01  2.696920E+02 -3.343768E+01  1.173978E+02  5.986520E+00 -6.512287E+00
        19   2 -2.345180E+02 -1.895163E+02 -4.481180E+02  4.826413E+01  3.981555E+00 -8.512177E-01
        19   3  8.227596E+01  7.984017E+01  5.273150E+02  8.514700E+01 -8.711587E+00 -9.315022E+00
        19   4  2.354738E+02 -9.491065E+01  8.645195E+01  1.315510E+02 -1.867971E+01 -3.589292E+00
        19   5 -4.681266E+01  2.516063E+02 -3.062703E+01  1.198684E+02  5.588610E+00  2.087545E+00
        19   6 -1.924770E+02 -1.663081E+02 -3.969617E+02  4.888737E+01  8.170699E+00  7.450728E-02
        19   7  6.597065E+01  6.613090E+01  5.208830E+02  7.583804E+01  5.337087E+00  8.370452E-01
        19   8  2.244155E+02 -5.819817E+01  1.071744E+02  1.318683E+02 -4.341188E+00 -4.181480E+00
        20   1 -2.377423E+02 -3.546278E+02 -6.047688E+02 -3.274208E+01 -1.711772E-01 -2.014324E+00
        20   2 -7.050264E+01  3.002607E+02  4.358134E+01 -1.456312E+02  1.149131E+00 -1.567703E+01
        20   3  2.592103E+02 -9.147818E+01  7.720323E+01 -1.174350E+02 -1.426746E+00  1.834747E+00
        20   4  1.030117E+02  8.648544E+01  5.065691E+02 -1.043182E+02  1.189054E+01 -2.372318E+00
        20   5 -2.163517E+02 -3.392540E+02 -5.876833E+02 -2.159075E+01  1.838730E+00 -1.269917E+00
        20   6 -7.887841E+01  3.112226E+02  1.142825E+01 -1.339247E+02 -3.386154E-01 -2.692802E+00
        20   7  2.342950E+02 -1.220991E+02  2.205885E+01 -1.066273E+02 -1.707656E+01 -1.008839E+00
        20   8  9.515225E+01  7.814418E+01  5.075626E+02 -1.020258E+02 -6.009100E+00  4.438502E+00
        21   1  7.452604E+01  8.311209E+01  4.763509E+02 -9.024477E+01  4.148718E+00 -4.462913E-01