
 displacements (vx,vy,vz) for set N1 and time  0.1000000E-03

       100 -2.871190E-05 -2.396575E-02  7.953131E-06
