
 displacements (vx,vy,vz) for set NALL and time  0.1000000E+01

         1  0.000000E+00  0.000000E+00  0.000000E+00
         2 -1.319933E-02  0.000000E+00  0.000000E+00
         3 -1.319933E-02 -1.319933E-02  0.000000E+00
         4 -3.715351E-18 -1.319933E-02  0.000000E+00
         5  8.764238E-16  1.815349E-15  2.310000E-01
         6 -1.319933E-02  1.301987E-15  2.310000E-01
         7 -1.319933E-02 -1.319933E-02  2.310000E-01
         8  1.328640E-15 -1.319933E-02  2.310000E-01
         9 -3.299833E-03  2.321908E-17  0.000000E+00
        10 -6.599666E-03 -1.555356E-18  0.000000E+00
        11 -9.899498E-03 -5.679078E-18  0.000000E+00
        12 -1.319933E-02 -3.299833E-03  0.000000E+00
        13 -1.319933E-02 -6.599666E-03  0.000000E+00
        14 -1.319933E-02 -9.899498E-03  0.000000E+00
        15 -9.899498E-03 -1.319933E-02  0.000000E+00
        16 -6.599666E-03 -1.319933E-02  0.000000E+00
        17 -3.299833E-03 -1.319933E-02  0.000000E+00
        18 -1.296892E-17 -9.899498E-03  0.000000E+00
        19 -2.083632E-17 -6.599666E-03  0.000000E+00
        20 -3.427591E-17 -3.299833E-03  0.000000E+00
        21 -3.299833E-03  1.617620E-15  2.310000E-01
        22 -6.599666E-03  1.429051E-15  2.310000E-01
        23 -9.899498E-03  1.353093E-15  2.310000E-01
        24 -1.319933E-02 -3.299833E-03  2.310000E-01
        25 -1.319933E-02 -6.599666E-03  2.310000E-01
        26 -1.319933E-02 -9.899498E-03  2.310000E-01
        27 -9.899498E-03 -1.319933E-02  2.310000E-01
        28 -6.599666E-03 -1.319933E-02  2.310000E-01
        29 -3.299833E-03 -1.319933E-02  2.310000E-01
        30  1.305176E-15 -9.899498E-03  2.310000E-01
        31  1.204012E-15 -6.599666E-03  2.310000E-01
        32  1.013968E-15 -3.299833E-03  2.310000E-01
        33 -1.319933E-02 -2.413444E-17  1.443750E-02
        34 -1.319933E-02  9.830664E-17  2.887500E-02
        35 -1.319933E-02  7.454836E-17  4.331250E-02
        36 -1.319933E-02  2.072594E-16  5.775000E-02
        37 -1.319933E-02  2.527453E-16  7.218750E-02
        38 -1.319933E-02  2.743883E-16  8.662500E-02
        39 -1.319933E-02  4.042766E-16  1.010625E-01
        40 -1.319933E-02  6.237822E-16  1.155000E-01
        41 -1.319933E-02  6.199469E-16  1.299375E-01
        42 -1.319933E-02  8.084987E-16  1.443750E-01
        43 -1.319933E-02  8.360389E-16  1.588125E-01
        44 -1.319933E-02  1.033954E-15  1.732500E-01
        45 -1.319933E-02  1.168307E-15  1.876875E-01
        46 -1.319933E-02  1.216724E-15  2.021250E-01
        47 -1.319933E-02  1.305390E-15  2.165625E-01
        48  8.669642E-16  1.741824E-15  2.165625E-01
        49  8.291654E-16  1.699546E-15  2.021250E-01
        50  8.232134E-16  1.584285E-15  1.876875E-01
        51  7.862852E-16  1.436587E-15  1.732500E-01
        52  6.278081E-16  1.276091E-15  1.588125E-01
        53  5.210999E-16  1.248917E-15  1.443750E-01
        54  4.623954E-16  1.027785E-15  1.299375E-01
        55  4.338864E-16  8.662784E-16  1.155000E-01
        56  3.465270E-16  6.615612E-16  1.010625E-01
        57  2.476016E-16  5.711734E-16  8.662500E-02
        58  2.000096E-16  4.579661E-16  7.218750E-02
        59  1.197516E-16  3.167252E-16  5.775000E-02
        60 -8.361464E-18  2.364406E-16  4.331250E-02
        61 -4.403576E-17  1.968736E-16  2.887500E-02
        62 -4.866834E-18  3.047245E-17  1.443750E-02
        63 -1.319933E-02 -1.319933E-02  1.443750E-02
        64 -1.319933E-02 -1.319933E-02  2.887500E-02
        65 -1.319933E-02 -1.319933E-02  4.331250E-02
        66 -1.319933E-02 -1.319933E-02  5.775000E-02
        67 -1.319933E-02 -1.319933E-02  7.218750E-02
        68 -1.319933E-02 -1.319933E-02  8.662500E-02
        69 -1.319933E-02 -1.319933E-02  1.010625E-01
        70 -1.319933E-02 -1.319933E-02  1.155000E-01
        71 -1.319933E-02 -1.319933E-02  1.299375E-01
        72 -1.319933E-02 -1.319933E-02  1.443750E-01
        73 -1.319933E-02 -1.319933E-02  1.588125E-01
        74 -1.319933E-02 -1.319933E-02  1.732500E-01
        75 -1.319933E-02 -1.319933E-02  1.876875E-01
        76 -1.319933E-02 -1.319933E-02  2.021250E-01
        77 -1.319933E-02 -1.319933E-02  2.165625E-01
        78 -2.396044E-17 -1.319933E-02  1.443750E-02
        79  8.578241E-17 -1.319933E-02  2.887500E-02
        80  1.506409E-16 -1.319933E-02  4.331250E-02
        81  2.539244E-16 -1.319933E-02  5.775000E-02
        82  3.787103E-16 -1.319933E-02  7.218750E-02
        83  4.617222E-16 -1.319933E-02  8.662500E-02
        84  5.978227E-16 -1.319933E-02  1.010625E-01
        85  6.848330E-16 -1.319933E-02  1.155000E-01
        86  8.186205E-16 -1.319933E-02  1.299375E-01
        87  8.942880E-16 -1.319933E-02  1.443750E-01
        88  1.062967E-15 -1.319933E-02  1.588125E-01
        89  1.274484E-15 -1.319933E-02  1.732500E-01
        90  1.273085E-15 -1.319933E-02  1.876875E-01
        91  1.391101E-15 -1.319933E-02  2.021250E-01
        92  1.412776E-15 -1.319933E-02  2.165625E-01
        93 -6.599666E-03 -3.299833E-03  0.000000E+00
        94 -3.299833E-03 -6.599666E-03  0.000000E+00
        95 -6.599666E-03 -6.599666E-03  0.000000E+00
        96 -9.899498E-03 -6.599666E-03  0.000000E+00
        97 -6.599666E-03 -9.899498E-03  0.000000E+00
        98 -6.599666E-03 -3.299833E-03  2.310000E-01
        99 -3.299833E-03 -6.599666E-03  2.310000E-01
       100 -6.599666E-03 -6.599666E-03  2.310000E-01
       101 -9.899498E-03 -6.599666E-03  2.310000E-01
       102 -6.599666E-03 -9.899498E-03  2.310000E-01
       103 -6.599666E-03  5.779235E-17  1.443750E-02
       104 -3.299833E-03  1.359726E-16  2.887500E-02
       105 -6.599666E-03  9.022674E-17  2.887500E-02
       106 -9.899498E-03  1.079286E-16  2.887500E-02
       107 -6.599666E-03  1.946252E-16  4.331250E-02
       108 -3.299833E-03  2.924454E-16  5.775000E-02
       109 -6.599666E-03  2.778769E-16  5.775000E-02
       110 -9.899498E-03  2.456596E-16  5.775000E-02
       111 -6.599666E-03  3.415455E-16  7.218750E-02
       112 -3.299833E-03  5.139312E-16  8.662500E-02
       113 -6.599666E-03  4.689898E-16  8.662500E-02
       114 -9.899498E-03  3.838663E-16  8.662500E-02
       115 -6.599666E-03  5.615009E-16  1.010625E-01
       116 -3.299833E-03  7.912676E-16  1.155000E-01
       117 -6.599666E-03  7.039373E-16  1.155000E-01
       118 -9.899498E-03  6.652979E-16  1.155000E-01
       119 -6.599666E-03  8.346811E-16  1.299375E-01
       120 -3.299833E-03  1.052677E-15  1.443750E-01
       121 -6.599666E-03  9.036840E-16  1.443750E-01
       122 -9.899498E-03  8.679565E-16  1.443750E-01
       123 -6.599666E-03  1.092047E-15  1.588125E-01
       124 -3.299833E-03  1.320142E-15  1.732500E-01
       125 -6.599666E-03  1.195942E-15  1.732500E-01
       126 -9.899498E-03  1.094023E-15  1.732500E-01
       127 -6.599666E-03  1.340221E-15  1.876875E-01
       128 -3.299833E-03  1.531116E-15  2.021250E-01
       129 -6.599666E-03  1.380811E-15  2.021250E-01
       130 -9.899498E-03  1.283738E-15  2.021250E-01
       131 -6.599666E-03  1.508592E-15  2.165625E-01
       132 -1.319933E-02 -6.599666E-03  1.443750E-02
       133 -1.319933E-02 -3.299833E-03  2.887500E-02
       134 -1.319933E-02 -6.599666E-03  2.887500E-02
       135 -1.319933E-02 -9.899498E-03  2.887500E-02
       136 -1.319933E-02 -6.599666E-03  4.331250E-02
       137 -1.319933E-02 -3.299833E-03  5.775000E-02
       138 -1.319933E-02 -6.599666E-03  5.775000E-02
       139 -1.319933E-02 -9.899498E-03  5.775000E-02
       140 -1.319933E-02 -6.599666E-03  7.218750E-02
       141 -1.319933E-02 -3.299833E-03  8.662500E-02
       142 -1.319933E-02 -6.599666E-03  8.662500E-02
       143 -1.319933E-02 -9.899498E-03  8.662500E-02
       144 -1.319933E-02 -6.599666E-03  1.010625E-01
       145 -1.319933E-02 -3.299833E-03  1.155000E-01
       146 -1.319933E-02 -6.599666E-03  1.155000E-01
       147 -1.319933E-02 -9.899498E-03  1.155000E-01
       148 -1.319933E-02 -6.599666E-03  1.299375E-01
       149 -1.319933E-02 -3.299833E-03  1.443750E-01
       150 -1.319933E-02 -6.599666E-03  1.443750E-01
       151 -1.319933E-02 -9.899498E-03  1.443750E-01
       152 -1.319933E-02 -6.599666E-03  1.588125E-01
       153 -1.319933E-02 -3.299833E-03  1.732500E-01
       154 -1.319933E-02 -6.599666E-03  1.732500E-01
       155 -1.319933E-02 -9.899498E-03  1.732500E-01
       156 -1.319933E-02 -6.599666E-03  1.876875E-01
       157 -1.319933E-02 -3.299833E-03  2.021250E-01
       158 -1.319933E-02 -6.599666E-03  2.021250E-01
       159 -1.319933E-02 -9.899498E-03  2.021250E-01
       160 -1.319933E-02 -6.599666E-03  2.165625E-01
       161 -6.599666E-03 -1.319933E-02  1.443750E-02
       162 -9.899498E-03 -1.319933E-02  2.887500E-02
       163 -6.599666E-03 -1.319933E-02  2.887500E-02
       164 -3.299833E-03 -1.319933E-02  2.887500E-02
       165 -6.599666E-03 -1.319933E-02  4.331250E-02
       166 -9.899498E-03 -1.319933E-02  5.775000E-02
       167 -6.599666E-03 -1.319933E-02  5.775000E-02
       168 -3.299833E-03 -1.319933E-02  5.775000E-02
       169 -6.599666E-03 -1.319933E-02  7.218750E-02
       170 -9.899498E-03 -1.319933E-02  8.662500E-02
       171 -6.599666E-03 -1.319933E-02  8.662500E-02
       172 -3.299833E-03 -1.319933E-02  8.662500E-02
       173 -6.599666E-03 -1.319933E-02  1.010625E-01
       174 -9.899498E-03 -1.319933E-02  1.155000E-01
       175 -6.599666E-03 -1.319933E-02  1.155000E-01
       176 -3.299833E-03 -1.319933E-02  1.155000E-01
       177 -6.599666E-03 -1.319933E-02  1.299375E-01
       178 -9.899498E-03 -1.319933E-02  1.443750E-01
       179 -6.599666E-03 -1.319933E-02  1.443750E-01
       180 -3.299833E-03 -1.319933E-02  1.443750E-01
       181 -6.599666E-03 -1.319933E-02  1.588125E-01
       182 -9.899498E-03 -1.319933E-02  1.732500E-01
       183 -6.599666E-03 -1.319933E-02  1.732500E-01
       184 -3.299833E-03 -1.319933E-02  1.732500E-01
       185 -6.599666E-03 -1.319933E-02  1.876875E-01
       186 -9.899498E-03 -1.319933E-02  2.021250E-01
       187 -6.599666E-03 -1.319933E-02  2.021250E-01
       188 -3.299833E-03 -1.319933E-02  2.021250E-01
       189 -6.599666E-03 -1.319933E-02  2.165625E-01
       190 -3.772049E-17 -6.599666E-03  1.443750E-02
       191  4.753869E-17 -9.899498E-03  2.887500E-02
       192  3.833544E-17 -6.599666E-03  2.887500E-02
       193  1.790515E-18 -3.299833E-03  2.887500E-02
       194  6.952653E-17 -6.599666E-03  4.331250E-02
       195  2.308630E-16 -9.899498E-03  5.775000E-02
       196  1.763412E-16 -6.599666E-03  5.775000E-02
       197  1.403237E-16 -3.299833E-03  5.775000E-02
       198  2.771323E-16 -6.599666E-03  7.218750E-02
       199  4.211212E-16 -9.899498E-03  8.662500E-02
       200  3.920764E-16 -6.599666E-03  8.662500E-02
       201  3.229221E-16 -3.299833E-03  8.662500E-02
       202  4.509822E-16 -6.599666E-03  1.010625E-01
       203  6.067677E-16 -9.899498E-03  1.155000E-01
       204  5.146031E-16 -6.599666E-03  1.155000E-01
       205  4.618960E-16 -3.299833E-03  1.155000E-01
       206  6.815977E-16 -6.599666E-03  1.299375E-01
       207  8.238288E-16 -9.899498E-03  1.443750E-01
       208  7.090367E-16 -6.599666E-03  1.443750E-01
       209  6.199100E-16 -3.299833E-03  1.443750E-01
       210  8.981522E-16 -6.599666E-03  1.588125E-01
       211  1.096777E-15 -9.899498E-03  1.732500E-01
       212  9.635768E-16 -6.599666E-03  1.732500E-01
       213  8.832850E-16 -3.299833E-03  1.732500E-01
       214  1.070909E-15 -6.599666E-03  1.876875E-01
       215  1.247999E-15 -9.899498E-03  2.021250E-01
       216  1.140042E-15 -6.599666E-03  2.021250E-01
       217  9.983410E-16 -3.299833E-03  2.021250E-01
       218  1.162694E-15 -6.599666E-03  2.165625E-01
       219 -6.599666E-03 -6.599666E-03  1.443750E-02
       220 -6.599666E-03 -3.299833E-03  2.887500E-02
       221 -3.299833E-03 -6.599666E-03  2.887500E-02
       222 -6.599666E-03 -6.599666E-03  2.887500E-02
       223 -9.899498E-03 -6.599666E-03  2.887500E-02
       224 -6.599666E-03 -9.899498E-03  2.887500E-02
       225 -6.599666E-03 -6.599666E-03  4.331250E-02
       226 -6.599666E-03 -3.299833E-03  5.775000E-02
       227 -3.299833E-03 -6.599666E-03  5.775000E-02
       228 -6.599666E-03 -6.599666E-03  5.775000E-02
       229 -9.899498E-03 -6.599666E-03  5.775000E-02
       230 -6.599666E-03 -9.899498E-03  5.775000E-02
       231 -6.599666E-03 -6.599666E-03  7.218750E-02
       232 -6.599666E-03 -3.299833E-03  8.662500E-02
       233 -3.299833E-03 -6.599666E-03  8.662500E-02
       234 -6.599666E-03 -6.599666E-03  8.662500E-02
       235 -9.899498E-03 -6.599666E-03  8.662500E-02
       236 -6.599666E-03 -9.899498E-03  8.662500E-02
       237 -6.599666E-03 -6.599666E-03  1.010625E-01
       238 -6.599666E-03 -3.299833E-03  1.155000E-01
       239 -3.299833E-03 -6.599666E-03  1.155000E-01
       240 -6.599666E-03 -6.599666E-03  1.155000E-01
       241 -9.899498E-03 -6.599666E-03  1.155000E-01
       242 -6.599666E-03 -9.899498E-03  1.155000E-01
       243 -6.599666E-03 -6.599666E-03  1.299375E-01
       244 -6.599666E-03 -3.299833E-03  1.443750E-01
       245 -3.299833E-03 -6.599666E-03  1.443750E-01
       246 -6.599666E-03 -6.599666E-03  1.443750E-01
       247 -9.899498E-03 -6.599666E-03  1.443750E-01
       248 -6.599666E-03 -9.899498E-03  1.443750E-01
       249 -6.599666E-03 -6.599666E-03  1.588125E-01
       250 -6.599666E-03 -3.299833E-03  1.732500E-01
       251 -3.299833E-03 -6.599666E-03  1.732500E-01
       252 -6.599666E-03 -6.599666E-03  1.732500E-01
       253 -9.899498E-03 -6.599666E-03  1.732500E-01
       254 -6.599666E-03 -9.899498E-03  1.732500E-01
       255 -6.599666E-03 -6.599666E-03  1.876875E-01
       256 -6.599666E-03 -3.299833E-03  2.021250E-01
       257 -3.299833E-03 -6.599666E-03  2.021250E-01
       258 -6.599666E-03 -6.599666E-03  2.021250E-01
       259 -9.899498E-03 -6.599666E-03  2.021250E-01
       260 -6.599666E-03 -9.899498E-03  2.021250E-01
       261 -6.599666E-03 -6.599666E-03  2.165625E-01

 stresses (elem, integ.pnt.,sxx,syy,szz,sxy,sxz,syz) for set EALL and time  0.1000000E+01

         1   1  1.202588E-02  1.202588E-02  9.930347E+02  2.883171E-13  2.414974E-13  7.663089E-13
         1   2  1.202588E-02  1.202588E-02  9.930347E+02  1.202262E-13 -4.153471E-13  6.672505E-13
         1   3  1.202588E-02  1.202588E-02  9.930347E+02  9.372365E-13 -3.561076E-13  1.685938E-12
         1   4  1.202588E-02  1.202588E-02  9.930347E+02 -7.241206E-13  5.126441E-13  1.041045E-13
         1   5  1.202588E-02  1.202588E-02  9.930347E+02  1.271433E-14 -2.619928E-13  6.138078E-13
         1   6  1.202588E-02  1.202588E-02  9.930347E+02  6.288387E-13 -4.835377E-13  1.888051E-14
         1   7  1.202588E-02  1.202588E-02  9.930347E+02  5.338542E-13  1.017536E-12  1.677335E-13
         1   8  1.202588E-02  1.202588E-02  9.930347E+02  2.480057E-13 -7.078758E-13  8.470349E-14
         2   1  1.202588E-02  1.202588E-02  9.930347E+02 -5.837769E-13  2.303498E-14  3.104282E-13
         2   2  1.202588E-02  1.202588E-02  9.930347E+02  1.428124E-13 -4.962260E-13 -8.458963E-13
         2   3  1.202588E-02  1.202588E-02  9.930347E+02 -5.612276E-13  6.790058E-13 -3.757053E-13
         2   4  1.202588E-02  1.202588E-02  9.930347E+02  1.017225E-12 -8.430658E-13 -1.111948E-12
         2   5  1.202588E-02  1.202588E-02  9.930347E+02  2.555590E-13 -1.703331E-13 -4.657257E-14
         2   6  1.202588E-02  1.202588E-02  9.930347E+02  1.002192E-14 -8.003889E-14  4.799195E-13
         2   7  1.202588E-02  1.202588E-02  9.930347E+02 -6.915125E-13 -2.259977E-13  8.204271E-14
         2   8  1.202588E-02  1.202588E-02  9.930347E+02 -5.762604E-14 -9.159403E-14 -5.054444E-13
         3   1  1.202588E-02  1.202588E-02  9.930347E+02  6.715668E-14 -6.286793E-13  5.638705E-13
         3   2  1.202588E-02  1.202588E-02  9.930347E+02  2.168126E-15  8.557930E-13 -9.988885E-14
         3   3  1.202588E-02  1.202588E-02  9.930347E+02 -4.389503E-13 -4.776293E-13 -4.793430E-13
         3   4  1.202588E-02  1.202588E-02  9.930347E+02  7.137245E-13  1.210627E-12 -5.740467E-13
         3   5  1.202588E-02  1.202588E-02  9.930347E+02 -1.733694E-13  6.611456E-13 -9.520637E-14
         3   6  1.202588E-02  1.202588E-02  9.930347E+02  2.221197E-14 -5.848491E-13 -4.287223E-14
         3   7  1.202588E-02  1.202588E-02  9.930347E+02 -6.569271E-13  9.840111E-13  6.483979E-13
         3   8  1.202588E-02  1.202588E-02  9.930347E+02  7.232157E-14 -2.675537E-13 -3.146401E-13
         4   1  1.202588E-02  1.202588E-02  9.930347E+02  3.257124E-13  1.172353E-12 -4.469468E-13
         4   2  1.202588E-02  1.202588E-02  9.930347E+02  3.307234E-13 -1.219408E-12 -8.503390E-13
         4   3  1.202588E-02  1.202588E-02  9.930347E+02  4.309426E-13  4.713428E-13  6.696842E-14
         4   4  1.202588E-02  1.202588E-02  9.930347E+02 -7.015345E-13 -7.668906E-13  3.264087E-15
         4   5  1.202588E-02  1.202588E-02  9.930347E+02 -1.002192E-13 -1.092500E-13  9.866810E-14
         4   6  1.202588E-02  1.202588E-02  9.930347E+02  7.265893E-14  8.651888E-13 -5.007836E-13
         4   7  1.202588E-02  1.202588E-02  9.930347E+02  9.621044E-13 -6.222852E-14 -5.577941E-14
         4   8  1.202588E-02  1.202588E-02  9.930347E+02  2.605699E-13  4.755189E-13 -9.114884E-13
         5   1  1.202588E-02  1.202588E-02  9.930347E+02 -7.474191E-14 -7.794083E-13 -1.275326E-12
         5   2  1.202588E-02  1.202588E-02  9.930347E+02 -7.931333E-14 -8.374564E-13  4.790980E-13
         5   3  1.202588E-02  1.202588E-02  9.930347E+02  6.242871E-13 -3.424702E-13  9.840946E-13
         5   4  1.202588E-02  1.202588E-02  9.930347E+02 -2.847627E-13 -1.700801E-13 -5.861440E-13
         5   5  1.202588E-02  1.202588E-02  9.930347E+02 -1.849830E-13  8.634000E-13  1.511526E-12
         5   6  1.202588E-02  1.202588E-02  9.930347E+02 -4.148922E-15 -5.919831E-13 -1.786395E-13
         5   7  1.202588E-02  1.202588E-02  9.930347E+02 -6.259476E-13 -5.037948E-13 -1.858310E-13
         5   8  1.202588E-02  1.202588E-02  9.930347E+02 -8.760560E-13 -1.181942E-12  6.917281E-13
         6   1  1.202588E-02  1.202588E-02  9.930347E+02 -1.503288E-14  9.287388E-13  2.096274E-13
         6   2  1.202588E-02  1.202588E-02  9.930347E+02 -3.632946E-13 -2.249186E-13 -4.052393E-14
         6   3  1.202588E-02  1.202588E-02  9.930347E+02 -3.307234E-13  3.297935E-13 -1.522489E-14
         6   4  1.202588E-02  1.202588E-02  9.930347E+02  6.263700E-14 -4.205508E-13  4.418803E-13
         6   5  1.202588E-02  1.202588E-02  9.930347E+02 -2.405261E-13 -2.639272E-13  1.989843E-13
         6   6  1.202588E-02  1.202588E-02  9.930347E+02 -3.257124E-13 -6.239587E-13  1.010605E-12
         6   7  1.202588E-02  1.202588E-02  9.930347E+02  6.313810E-13  6.219840E-13 -6.528216E-13
         6   8  1.202588E-02  1.202588E-02  9.930347E+02  8.769181E-13 -1.365543E-13 -1.200357E-12
         7   1  1.202588E-02  1.202588E-02  9.930347E+02  2.969802E-13 -6.112548E-13  1.203528E-12
         7   2  1.202588E-02  1.202588E-02  9.930347E+02  2.098227E-13  5.241843E-13 -9.744878E-14
         7   3  1.202588E-02  1.202588E-02  9.930347E+02 -2.893022E-13 -4.458376E-13 -5.278187E-13
         7   4  1.202588E-02  1.202588E-02  9.930347E+02  6.951586E-14  7.847501E-13  4.068233E-13
         7   5  1.202588E-02  1.202588E-02  9.930347E+02 -2.341816E-13 -2.533780E-13  4.831134E-13
         7   6  1.202588E-02  1.202588E-02  9.930347E+02 -3.463939E-13 -1.936689E-13  1.008720E-12
         7   7  1.202588E-02  1.202588E-02  9.930347E+02  3.470898E-13 -2.460768E-13  2.245257E-13
         7   8  1.202588E-02  1.202588E-02  9.930347E+02  4.804146E-13  8.265801E-14 -5.655496E-14
         8   1  1.202588E-02  1.202588E-02  9.930347E+02  6.013152E-14  6.565742E-13 -7.469569E-14
         8   2  1.202588E-02  1.202588E-02  9.930347E+02  2.680864E-13  1.430467E-13  5.020118E-13
         8   3  1.202588E-02  1.202588E-02  9.930347E+02  1.503288E-13  1.019830E-12 -4.969552E-15
         8   4  1.202588E-02  1.202588E-02  9.930347E+02 -5.612276E-13 -6.385869E-14 -1.120473E-12
         8   5  1.202588E-02  1.202588E-02  9.930347E+02 -1.202630E-13  6.147594E-13  3.440489E-13
         8   6  1.202588E-02  1.202588E-02  9.930347E+02  4.910741E-13  3.031678E-13 -1.947913E-12
         8   7  1.202588E-02  1.202588E-02  9.930347E+02 -2.605699E-13  6.246269E-13 -1.134262E-12
         8   8  1.202588E-02  1.202588E-02  9.930347E+02 -4.735358E-13  2.776085E-13  6.705388E-13
         9   1  1.202588E-02  1.202588E-02  9.930347E+02 -7.993678E-13  7.330463E-14  2.097907E-12
         9   2  1.202588E-02  1.202588E-02  9.930347E+02  1.581232E-13 -3.349273E-14 -3.486665E-13
         9   3  1.202588E-02  1.202588E-02  9.930347E+02  1.151324E-13  2.746336E-13  9.115317E-13
         9   4  1.202588E-02  1.202588E-02  9.930347E+02  3.911328E-13  6.561551E-13  5.905394E-13
         9   5  1.202588E-02  1.202588E-02  9.930347E+02 -1.629759E-13  5.621899E-13  2.363933E-13
         9   6  1.202588E-02  1.202588E-02  9.930347E+02  5.288866E-15 -1.592209E-12  7.352316E-13
         9   7  1.202588E-02  1.202588E-02  9.930347E+02  4.658997E-13  2.812852E-14  2.834148E-13
         9   8  1.202588E-02  1.202588E-02  9.930347E+02  7.043135E-14 -1.182494E-12  1.014412E-12
        10   1  1.202588E-02  1.202588E-02  9.930347E+02  1.252740E-12 -1.066535E-12 -9.036953E-14
        10   2  1.202588E-02  1.202588E-02  9.930347E+02  3.557782E-13 -1.274520E-12  4.293976E-14
        10   3  1.202588E-02  1.202588E-02  9.930347E+02  4.108988E-13  1.134190E-12  3.955195E-13
        10   4  1.202588E-02  1.202588E-02  9.930347E+02 -3.332289E-13 -4.038463E-13 -7.751816E-13
        10   5  1.202588E-02  1.202588E-02  9.930347E+02  4.008768E-14  3.715904E-13  2.354301E-12
        10   6  1.202588E-02  1.202588E-02  9.930347E+02 -1.277795E-13 -1.143308E-12 -3.637586E-13
        10   7  1.202588E-02  1.202588E-02  9.930347E+02 -3.006576E-14  6.334027E-13  3.818457E-13
        10   8  1.202588E-02  1.202588E-02  9.930347E+02  8.268085E-14  8.870209E-13  1.360752E-12
        11   1  1.202588E-02  1.202588E-02  9.930347E+02  7.906146E-13 -8.774421E-13  6.679749E-13
        11   2  1.202588E-02  1.202588E-02  9.930347E+02  6.416615E-13  8.831463E-13  1.425738E-12
        11   3  1.202588E-02  1.202588E-02  9.930347E+02 -7.878702E-14 -4.134224E-13  1.281255E-12
        11   4  1.202588E-02  1.202588E-02  9.930347E+02 -3.982913E-14 -7.165770E-14 -8.378770E-13
        11   5  1.202588E-02  1.202588E-02  9.930347E+02  2.118487E-13  2.100915E-12  8.165493E-14
        11   6  1.202588E-02  1.202588E-02  9.930347E+02  5.464532E-13 -9.338517E-13 -1.577935E-12
        11   7  1.202588E-02  1.202588E-02  9.930347E+02  5.650891E-14  2.926030E-13 -7.546710E-13
        11   8  1.202588E-02  1.202588E-02  9.930347E+02  5.013546E-13  1.747656E-12  2.334595E-13
        12   1  1.202588E-02  1.202588E-02  9.930347E+02 -1.017225E-12  1.022626E-13  5.108488E-13
        12   2  1.202588E-02  1.202588E-02  9.930347E+02 -5.637330E-13 -1.341037E-12 -8.307493E-13
        12   3  1.202588E-02  1.202588E-02  9.930347E+02 -1.002192E-14  1.768368E-12 -1.869514E-12
        12   4  1.202588E-02  1.202588E-02  9.930347E+02  2.856247E-13  3.501103E-13  4.634291E-14
        12   5  1.202588E-02  1.202588E-02  9.930347E+02 -3.457563E-13 -3.006755E-13 -8.101417E-13
        12   6  1.202588E-02  1.202588E-02  9.930347E+02  2.480425E-13 -2.034896E-13 -1.118654E-12
        12   7  1.202588E-02  1.202588E-02  9.930347E+02  3.006576E-13  7.520581E-14  1.503913E-12
        12   8  1.202588E-02  1.202588E-02  9.930347E+02 -3.457563E-13  1.591874E-13 -6.188310E-13
        13   1  1.202588E-02  1.202588E-02  9.930347E+02  2.907269E-13  8.559925E-13 -1.099883E-12
        13   2  1.202588E-02  1.202588E-02  9.930347E+02  2.180134E-13 -1.577348E-12  8.958579E-13
        13   3  1.202588E-02  1.202588E-02  9.930347E+02 -1.326993E-13 -9.316445E-14  2.040436E-12
        13   4  1.202588E-02  1.202588E-02  9.930347E+02 -9.871225E-13  8.847432E-13  7.452721E-14
        13   5  1.202588E-02  1.202588E-02  9.930347E+02 -9.895735E-13  1.310365E-12  8.155498E-13
        13   6  1.202588E-02  1.202588E-02  9.930347E+02  6.016820E-14 -1.239020E-12  1.471499E-12
        13   7  1.202588E-02  1.202588E-02  9.930347E+02 -1.276883E-13  5.558284E-13 -8.603266E-13
        13   8  1.202588E-02  1.202588E-02  9.930347E+02 -3.256758E-13  5.942190E-14 -5.921621E-13
        14   1  1.202588E-02  1.202588E-02  9.930347E+02 -6.564358E-13  6.324125E-14  5.020118E-13
        14   2  1.202588E-02  1.202588E-02  9.930347E+02 -4.710303E-13  1.115689E-13  1.762949E-13
        14   3  1.202588E-02  1.202588E-02  9.930347E+02 -1.002192E-13 -2.283734E-14  1.441218E-12
        14   4  1.202588E-02  1.202588E-02  9.930347E+02  5.261508E-13 -7.695693E-13 -6.164432E-13
        14   5  1.202588E-02  1.202588E-02  9.930347E+02  1.129972E-12  2.419087E-13  6.471377E-13
        14   6  1.202588E-02  1.202588E-02  9.930347E+02 -2.730973E-13 -8.173510E-13  2.516116E-12
        14   7  1.202588E-02  1.202588E-02  9.930347E+02 -4.309426E-13  2.514651E-12 -1.948209E-12
        14   8  1.202588E-02  1.202588E-02  9.930347E+02 -2.480425E-13 -5.718095E-13  8.091976E-13
        15   1  1.202588E-02  1.202588E-02  9.930347E+02 -4.556493E-13  3.936121E-13 -4.451943E-13
        15   2  1.202588E-02  1.202588E-02  9.930347E+02 -6.092778E-13 -1.299658E-13  5.895394E-13
        15   3  1.202588E-02  1.202588E-02  9.930347E+02 -2.376725E-13  1.117681E-12  4.510234E-15
        15   4  1.202588E-02  1.202588E-02  9.930347E+02  3.728704E-13 -1.898354E-13 -3.870449E-13
        15   5  1.202588E-02  1.202588E-02  9.930347E+02  5.390264E-13  1.722406E-14  1.471790E-12
        15   6  1.202588E-02  1.202588E-02  9.930347E+02 -9.750779E-13 -7.890918E-13  7.655945E-13
        15   7  1.202588E-02  1.202588E-02  9.930347E+02 -2.827711E-13 -8.462665E-13  7.918146E-13
        15   8  1.202588E-02  1.202588E-02  9.930347E+02 -3.386860E-13 -2.882577E-13  2.742870E-13
        16   1  1.202588E-02  1.202588E-02  9.930347E+02  2.004384E-14  6.569441E-13 -6.433418E-13
        16   2  1.202588E-02  1.202588E-02  9.930347E+02  3.983714E-13 -3.215587E-13 -4.838278E-13
        16   3  1.202588E-02  1.202588E-02  9.930347E+02  3.006576E-14  1.660243E-13 -7.830803E-14
        16   4  1.202588E-02  1.202588E-02  9.930347E+02 -3.482617E-13  8.326721E-14 -7.421247E-13
        16   5  1.202588E-02  1.202588E-02  9.930347E+02 -1.212652E-12  2.415190E-12  5.965038E-13
        16   6  1.202588E-02  1.202588E-02  9.930347E+02 -1.753836E-14 -1.643131E-12  6.010192E-13
        16   7  1.202588E-02  1.202588E-02  9.930347E+02  2.004384E-14  1.956067E-12 -2.120867E-13
        16   8  1.202588E-02  1.202588E-02  9.930347E+02 -1.879110E-13 -2.633471E-12 -9.861051E-13
        17   1  1.202588E-02  1.202588E-02  9.930347E+02 -4.299273E-13  2.501461E-13 -1.102156E-15
        17   2  1.202588E-02  1.202588E-02  9.930347E+02  1.846054E-13 -2.283008E-12  2.402240E-12
        17   3  1.202588E-02  1.202588E-02  9.930347E+02  1.153536E-12  6.367985E-14  2.011925E-12
        17   4  1.202588E-02  1.202588E-02  9.930347E+02  5.432047E-14  4.588621E-14  9.334608E-13
        17   5  1.202588E-02  1.202588E-02  9.930347E+02 -1.374493E-12  2.426410E-13  2.216909E-12
        17   6  1.202588E-02  1.202588E-02  9.930347E+02 -1.411070E-13  2.031527E-13  2.338321E-12
        17   7  1.202588E-02  1.202588E-02  9.930347E+02  4.895839E-13 -2.222960E-13 -5.934845E-14
        17   8  1.202588E-02  1.202588E-02  9.930347E+02 -2.563591E-13  2.226915E-13  7.433746E-13
        18   1  1.202588E-02  1.202588E-02  9.930347E+02  6.063262E-13 -1.777920E-12  1.302887E-13
        18   2  1.202588E-02  1.202588E-02  9.930347E+02 -1.979329E-13 -8.529998E-13 -3.520186E-13
        18   3  1.202588E-02  1.202588E-02  9.930347E+02 -3.708111E-13 -5.513600E-13  9.388793E-13
        18   4  1.202588E-02  1.202588E-02  9.930347E+02  7.341057E-13  5.968304E-13  1.434187E-12
        18   5  1.202588E-02  1.202588E-02  9.930347E+02  1.150015E-12 -6.423112E-13 -1.056474E-12
        18   6  1.202588E-02  1.202588E-02  9.930347E+02  8.769181E-14  1.852687E-12  2.890242E-12
        18   7  1.202588E-02  1.202588E-02  9.930347E+02 -7.015345E-13  7.709161E-13 -1.298806E-12
        18   8  1.202588E-02  1.202588E-02  9.930347E+02  3.131850E-13 -7.168742E-13 -2.652757E-12
        19   1  1.202588E-02  1.202588E-02  9.930347E+02  1.154768E-12  6.958764E-13 -1.086597E-12
        19   2  1.202588E-02  1.202588E-02  9.930347E+02  8.361556E-13 -4.019256E-13  7.515993E-13
        19   3  1.202588E-02  1.202588E-02  9.930347E+02 -3.460145E-13 -1.200979E-12  2.187113E-12
        19   4  1.202588E-02  1.202588E-02  9.930347E+02  1.201956E-12  3.262603E-14  9.531347E-13
        19   5  1.202588E-02  1.202588E-02  9.930347E+02  1.029494E-12 -2.659174E-13 -2.255237E-12
        19   6  1.202588E-02  1.202588E-02  9.930347E+02 -3.664749E-13  9.594693E-13  5.036547E-13
        19   7  1.202588E-02  1.202588E-02  9.930347E+02 -5.289146E-13  4.733286E-13  9.027559E-13
        19   8  1.202588E-02  1.202588E-02  9.930347E+02  3.941290E-14  2.054893E-12 -2.327913E-13
        20   1  1.202588E-02  1.202588E-02  9.930347E+02 -9.019729E-14 -3.930093E-13 -1.340603E-12
        20   2  1.202588E-02  1.202588E-02  9.930347E+02  4.033823E-13  1.331695E-12  6.535256E-13
        20   3  1.202588E-02  1.202588E-02  9.930347E+02  8.719071E-13 -1.896372E-13  8.351626E-13
        20   4  1.202588E-02  1.202588E-02  9.930347E+02 -4.935796E-13  1.789267E-12  1.616793E-12
        20   5  1.202588E-02  1.202588E-02  9.930347E+02 -1.322894E-12  2.203317E-13 -2.135520E-12
        20   6  1.202588E-02  1.202588E-02  9.930347E+02  7.817098E-13 -2.261023E-12  1.883473E-12
        20   7  1.202588E-02  1.202588E-02  9.930347E+02  5.010960E-13  2.089070E-12 -1.801145E-12
        20   8  1.202588E-02  1.202588E-02  9.930347E+02 -8.017537E-14  1.819390E-12 -1.281052E-13
        21   1  1.202588E-02  1.202588E-02  9.930347E+02 -5.547490E-13  4.243395E-13  1.966455E-12