    1C
    1UModel: beam     Date: 10-Mar-1998                                 
    1UUSER                                                              
    1UDATE              24.november.2019                                
    1UTIME              19:35:28                                        
    1UHOST                                                              
    1UPGM               CalculiX                                        
    1UVERSION           Version 2.16                             
    1UCOMPILETIME       So 24. Nov 18:30:58 CET 2019                    
    1UDIR                                                               
    1UDBN                                                               
    1UMAT    1EL                                                        
    2C                           261                                     1
 -1         1 0.00000E+00 0.00000E+00 0.00000E+00
 -1         2 1.00000E+00 0.00000E+00 0.00000E+00
 -1         3 1.00000E+00 1.50000E+00 0.00000E+00
 -1         4 0.00000E+00 1.50000E+00 0.00000E+00
 -1         5 0.00000E+00 0.00000E+00 8.00000E+00
 -1         6 1.00000E+00 0.00000E+00 8.00000E+00
 -1         7 1.00000E+00 1.50000E+00 8.00000E+00
 -1         8 0.00000E+00 1.50000E+00 8.00000E+00
 -1         9 2.50000E-01 0.00000E+00 0.00000E+00
 -1        10 5.00000E-01 0.00000E+00 0.00000E+00
 -1        11 7.50000E-01 0.00000E+00 0.00000E+00
 -1        12 1.00000E+00 3.75000E-01 0.00000E+00
 -1        13 1.00000E+00 7.50000E-01 0.00000E+00
 -1        14 1.00000E+00 1.12500E+00 0.00000E+00
 -1        15 7.50000E-01 1.50000E+00 0.00000E+00
 -1        16 5.00000E-01 1.50000E+00 0.00000E+00
 -1        17 2.50000E-01 1.50000E+00 0.00000E+00
 -1        18 0.00000E+00 1.12500E+00 0.00000E+00
 -1        19 0.00000E+00 7.50000E-01 0.00000E+00
 -1        20 0.00000E+00 3.75000E-01 0.00000E+00
 -1        21 2.50000E-01 0.00000E+00 8.00000E+00
 -1        22 5.00000E-01 0.00000E+00 8.00000E+00
 -1        23 7.50000E-01 0.00000E+00 8.00000E+00
 -1        24 1.00000E+00 3.75000E-01 8.00000E+00
 -1        25 1.00000E+00 7.50000E-01 8.00000E+00
 -1        26 1.00000E+00 1.12500E+00 8.00000E+00
 -1        27 7.50000E-01 1.50000E+00 8.00000E+00
 -1        28 5.00000E-01 1.50000E+00 8.00000E+00
 -1        29 2.50000E-01 1.50000E+00 8.00000E+00
 -1        30 0.00000E+00 1.12500E+00 8.00000E+00
 -1        31 0.00000E+00 7.50000E-01 8.00000E+00
 -1        32 0.00000E+00 3.75000E-01 8.00000E+00
 -1        33 1.00000E+00 0.00000E+00 5.00000E-01
 -1        34 1.00000E+00 0.00000E+00 1.00000E+00
 -1        35 1.00000E+00 0.00000E+00 1.50000E+00
 -1        36 1.00000E+00 0.00000E+00 2.00000E+00
 -1        37 1.00000E+00 0.00000E+00 2.50000E+00
 -1        38 1.00000E+00 0.00000E+00 3.00000E+00
 -1        39 1.00000E+00 0.00000E+00 3.50000E+00
 -1        40 1.00000E+00 0.00000E+00 4.00000E+00
 -1        41 1.00000E+00 0.00000E+00 4.50000E+00
 -1        42 1.00000E+00 0.00000E+00 5.00000E+00
 -1        43 1.00000E+00 0.00000E+00 5.50000E+00
 -1        44 1.00000E+00 0.00000E+00 6.00000E+00
 -1        45 1.00000E+00 0.00000E+00 6.50000E+00
 -1        46 1.00000E+00 0.00000E+00 7.00000E+00
 -1        47 1.00000E+00 0.00000E+00 7.50000E+00
 -1        48 0.00000E+00 0.00000E+00 7.50000E+00
 -1        49 0.00000E+00 0.00000E+00 7.00000E+00
 -1        50 0.00000E+00 0.00000E+00 6.50000E+00
 -1        51 0.00000E+00 0.00000E+00 6.00000E+00
 -1        52 0.00000E+00 0.00000E+00 5.50000E+00
 -1        53 0.00000E+00 0.00000E+00 5.00000E+00
 -1        54 0.00000E+00 0.00000E+00 4.50000E+00
 -1        55 0.00000E+00 0.00000E+00 4.00000E+00
 -1        56 0.00000E+00 0.00000E+00 3.50000E+00
 -1        57 0.00000E+00 0.00000E+00 3.00000E+00
 -1        58 0.00000E+00 0.00000E+00 2.50000E+00
 -1        59 0.00000E+00 0.00000E+00 2.00000E+00
 -1        60 0.00000E+00 0.00000E+00 1.50000E+00
 -1        61 0.00000E+00 0.00000E+00 1.00000E+00
 -1        62 0.00000E+00 0.00000E+00 5.00000E-01
 -1        63 1.00000E+00 1.50000E+00 5.00000E-01
 -1        64 1.00000E+00 1.50000E+00 1.00000E+00
 -1        65 1.00000E+00 1.50000E+00 1.50000E+00
 -1        66 1.00000E+00 1.50000E+00 2.00000E+00
 -1        67 1.00000E+00 1.50000E+00 2.50000E+00
 -1        68 1.00000E+00 1.50000E+00 3.00000E+00
 -1        69 1.00000E+00 1.50000E+00 3.50000E+00
 -1        70 1.00000E+00 1.50000E+00 4.00000E+00
 -1        71 1.00000E+00 1.50000E+00 4.50000E+00
 -1        72 1.00000E+00 1.50000E+00 5.00000E+00
 -1        73 1.00000E+00 1.50000E+00 5.50000E+00
 -1        74 1.00000E+00 1.50000E+00 6.00000E+00
 -1        75 1.00000E+00 1.50000E+00 6.50000E+00
 -1        76 1.00000E+00 1.50000E+00 7.00000E+00
 -1        77 1.00000E+00 1.50000E+00 7.50000E+00
 -1        78 0.00000E+00 1.50000E+00 5.00000E-01
 -1        79 0.00000E+00 1.50000E+00 1.00000E+00
 -1        80 0.00000E+00 1.50000E+00 1.50000E+00
 -1        81 0.00000E+00 1.50000E+00 2.00000E+00
 -1        82 0.00000E+00 1.50000E+00 2.50000E+00
 -1        83 0.00000E+00 1.50000E+00 3.00000E+00
 -1        84 0.00000E+00 1.50000E+00 3.50000E+00
 -1        85 0.00000E+00 1.50000E+00 4.00000E+00
 -1        86 0.00000E+00 1.50000E+00 4.50000E+00
 -1        87 0.00000E+00 1.50000E+00 5.00000E+00
 -1        88 0.00000E+00 1.50000E+00 5.50000E+00
 -1        89 0.00000E+00 1.50000E+00 6.00000E+00
 -1        90 0.00000E+00 1.50000E+00 6.50000E+00
 -1        91 0.00000E+00 1.50000E+00 7.00000E+00
 -1        92 0.00000E+00 1.50000E+00 7.50000E+00
 -1        93 5.00000E-01 3.75000E-01 0.00000E+00
 -1        94 2.50000E-01 7.50000E-01 0.00000E+00
 -1        95 5.00000E-01 7.50000E-01 0.00000E+00
 -1        96 7.50000E-01 7.50000E-01 0.00000E+00
 -1        97 5.00000E-01 1.12500E+00 0.00000E+00
 -1        98 5.00000E-01 3.75000E-01 8.00000E+00
 -1        99 2.50000E-01 7.50000E-01 8.00000E+00
 -1       100 5.00000E-01 7.50000E-01 8.00000E+00
 -1       101 7.50000E-01 7.50000E-01 8.00000E+00
 -1       102 5.00000E-01 1.12500E+00 8.00000E+00
 -1       103 5.00000E-01 0.00000E+00 5.00000E-01
 -1       104 2.50000E-01 0.00000E+00 1.00000E+00
 -1       105 5.00000E-01 0.00000E+00 1.00000E+00
 -1       106 7.50000E-01 0.00000E+00 1.00000E+00
 -1       107 5.00000E-01 0.00000E+00 1.50000E+00
 -1       108 2.50000E-01 0.00000E+00 2.00000E+00
 -1       109 5.00000E-01 0.00000E+00 2.00000E+00
 -1       110 7.50000E-01 0.00000E+00 2.00000E+00
 -1       111 5.00000E-01 0.00000E+00 2.50000E+00
 -1       112 2.50000E-01 0.00000E+00 3.00000E+00
 -1       113 5.00000E-01 0.00000E+00 3.00000E+00
 -1       114 7.50000E-01 0.00000E+00 3.00000E+00
 -1       115 5.00000E-01 0.00000E+00 3.50000E+00
 -1       116 2.50000E-01 0.00000E+00 4.00000E+00
 -1       117 5.00000E-01 0.00000E+00 4.00000E+00
 -1       118 7.50000E-01 0.00000E+00 4.00000E+00
 -1       119 5.00000E-01 0.00000E+00 4.50000E+00
 -1       120 2.50000E-01 0.00000E+00 5.00000E+00
 -1       121 5.00000E-01 0.00000E+00 5.00000E+00
 -1       122 7.50000E-01 0.00000E+00 5.00000E+00
 -1       123 5.00000E-01 0.00000E+00 5.50000E+00
 -1       124 2.50000E-01 0.00000E+00 6.00000E+00
 -1       125 5.00000E-01 0.00000E+00 6.00000E+00
 -1       126 7.50000E-01 0.00000E+00 6.00000E+00
 -1       127 5.00000E-01 0.00000E+00 6.50000E+00
 -1       128 2.50000E-01 0.00000E+00 7.00000E+00
 -1       129 5.00000E-01 0.00000E+00 7.00000E+00
 -1       130 7.50000E-01 0.00000E+00 7.00000E+00
 -1       131 5.00000E-01 0.00000E+00 7.50000E+00
 -1       132 1.00000E+00 7.50000E-01 5.00000E-01
 -1       133 1.00000E+00 3.75000E-01 1.00000E+00
 -1       134 1.00000E+00 7.50000E-01 1.00000E+00
 -1       135 1.00000E+00 1.12500E+00 1.00000E+00
 -1       136 1.00000E+00 7.50000E-01 1.50000E+00
 -1       137 1.00000E+00 3.75000E-01 2.00000E+00
 -1       138 1.00000E+00 7.50000E-01 2.00000E+00
 -1       139 1.00000E+00 1.12500E+00 2.00000E+00
 -1       140 1.00000E+00 7.50000E-01 2.50000E+00
 -1       141 1.00000E+00 3.75000E-01 3.00000E+00
 -1       142 1.00000E+00 7.50000E-01 3.00000E+00
 -1       143 1.00000E+00 1.12500E+00 3.00000E+00
 -1       144 1.00000E+00 7.50000E-01 3.50000E+00
 -1       145 1.00000E+00 3.75000E-01 4.00000E+00
 -1       146 1.00000E+00 7.50000E-01 4.00000E+00
 -1       147 1.00000E+00 1.12500E+00 4.00000E+00
 -1       148 1.00000E+00 7.50000E-01 4.50000E+00
 -1       149 1.00000E+00 3.75000E-01 5.00000E+00
 -1       150 1.00000E+00 7.50000E-01 5.00000E+00
 -1       151 1.00000E+00 1.12500E+00 5.00000E+00
 -1       152 1.00000E+00 7.50000E-01 5.50000E+00
 -1       153 1.00000E+00 3.75000E-01 6.00000E+00
 -1       154 1.00000E+00 7.50000E-01 6.00000E+00
 -1       155 1.00000E+00 1.12500E+00 6.00000E+00
 -1       156 1.00000E+00 7.50000E-01 6.50000E+00
 -1       157 1.00000E+00 3.75000E-01 7.00000E+00
 -1       158 1.00000E+00 7.50000E-01 7.00000E+00
 -1       159 1.00000E+00 1.12500E+00 7.00000E+00
 -1       160 1.00000E+00 7.50000E-01 7.50000E+00
 -1       161 5.00000E-01 1.50000E+00 5.00000E-01
 -1       162 7.50000E-01 1.50000E+00 1.00000E+00
 -1       163 5.00000E-01 1.50000E+00 1.00000E+00
 -1       164 2.50000E-01 1.50000E+00 1.00000E+00
 -1       165 5.00000E-01 1.50000E+00 1.50000E+00
 -1       166 7.50000E-01 1.50000E+00 2.00000E+00
 -1       167 5.00000E-01 1.50000E+00 2.00000E+00
 -1       168 2.50000E-01 1.50000E+00 2.00000E+00
 -1       169 5.00000E-01 1.50000E+00 2.50000E+00
 -1       170 7.50000E-01 1.50000E+00 3.00000E+00
 -1       171 5.00000E-01 1.50000E+00 3.00000E+00
 -1       172 2.50000E-01 1.50000E+00 3.00000E+00
 -1       173 5.00000E-01 1.50000E+00 3.50000E+00
 -1       174 7.50000E-01 1.50000E+00 4.00000E+00
 -1       175 5.00000E-01 1.50000E+00 4.00000E+00
 -1       176 2.50000E-01 1.50000E+00 4.00000E+00
 -1       177 5.00000E-01 1.50000E+00 4.50000E+00
 -1       178 7.50000E-01 1.50000E+00 5.00000E+00
 -1       179 5.00000E-01 1.50000E+00 5.00000E+00
 -1       180 2.50000E-01 1.50000E+00 5.00000E+00
 -1       181 5.00000E-01 1.50000E+00 5.50000E+00
 -1       182 7.50000E-01 1.50000E+00 6.00000E+00
 -1       183 5.00000E-01 1.50000E+00 6.00000E+00
 -1       184 2.50000E-01 1.50000E+00 6.00000E+00
 -1       185 5.00000E-01 1.50000E+00 6.50000E+00
 -1       186 7.50000E-01 1.50000E+00 7.00000E+00
 -1       187 5.00000E-01 1.50000E+00 7.00000E+00
 -1       188 2.50000E-01 1.50000E+00 7.00000E+00
 -1       189 5.00000E-01 1.50000E+00 7.50000E+00
 -1       190 0.00000E+00 7.50000E-01 5.00000E-01
 -1       191 0.00000E+00 1.12500E+00 1.00000E+00
 -1       192 0.00000E+00 7.50000E-01 1.00000E+00
 -1       193 0.00000E+00 3.75000E-01 1.00000E+00
 -1       194 0.00000E+00 7.50000E-01 1.50000E+00
 -1       195 0.00000E+00 1.12500E+00 2.00000E+00
 -1       196 0.00000E+00 7.50000E-01 2.00000E+00
 -1       197 0.00000E+00 3.75000E-01 2.00000E+00
 -1       198 0.00000E+00 7.50000E-01 2.50000E+00
 -1       199 0.00000E+00 1.12500E+00 3.00000E+00
 -1       200 0.00000E+00 7.50000E-01 3.00000E+00
 -1       201 0.00000E+00 3.75000E-01 3.00000E+00
 -1       202 0.00000E+00 7.50000E-01 3.50000E+00
 -1       203 0.00000E+00 1.12500E+00 4.00000E+00
 -1       204 0.00000E+00 7.50000E-01 4.00000E+00
 -1       205 0.00000E+00 3.75000E-01 4.00000E+00
 -1       206 0.00000E+00 7.50000E-01 4.50000E+00
 -1       207 0.00000E+00 1.12500E+00 5.00000E+00
 -1       208 0.00000E+00 7.50000E-01 5.00000E+00
 -1       209 0.00000E+00 3.75000E-01 5.00000E+00
 -1       210 0.00000E+00 7.50000E-01 5.50000E+00
 -1       211 0.00000E+00 1.12500E+00 6.00000E+00
 -1       212 0.00000E+00 7.50000E-01 6.00000E+00
 -1       213 0.00000E+00 3.75000E-01 6.00000E+00
 -1       214 0.00000E+00 7.50000E-01 6.50000E+00
 -1       215 0.00000E+00 1.12500E+00 7.00000E+00
 -1       216 0.00000E+00 7.50000E-01 7.00000E+00
 -1       217 0.00000E+00 3.75000E-01 7.00000E+00
 -1       218 0.00000E+00 7.50000E-01 7.50000E+00
 -1       219 5.00000E-01 7.50000E-01 5.00000E-01
 -1       220 5.00000E-01 3.75000E-01 1.00000E+00
 -1       221 2.50000E-01 7.50000E-01 1.00000E+00
 -1       222 5.00000E-01 7.50000E-01 1.00000E+00
 -1       223 7.50000E-01 7.50000E-01 1.00000E+00
 -1       224 5.00000E-01 1.12500E+00 1.00000E+00
 -1       225 5.00000E-01 7.50000E-01 1.50000E+00
 -1       226 5.00000E-01 3.75000E-01 2.00000E+00
 -1       227 2.50000E-01 7.50000E-01 2.00000E+00
 -1       228 5.00000E-01 7.50000E-01 2.00000E+00
 -1       229 7.50000E-01 7.50000E-01 2.00000E+00
 -1       230 5.00000E-01 1.12500E+00 2.00000E+00
 -1       231 5.00000E-01 7.50000E-01 2.50000E+00
 -1       232 5.00000E-01 3.75000E-01 3.00000E+00
 -1       233 2.50000E-01 7.50000E-01 3.00000E+00
 -1       234 5.00000E-01 7.50000E-01 3.00000E+00
 -1       235 7.50000E-01 7.50000E-01 3.00000E+00
 -1       236 5.00000E-01 1.12500E+00 3.00000E+00
 -1       237 5.00000E-01 7.50000E-01 3.50000E+00
 -1       238 5.00000E-01 3.75000E-01 4.00000E+00
 -1       239 2.50000E-01 7.50000E-01 4.00000E+00
 -1       240 5.00000E-01 7.50000E-01 4.00000E+00
 -1       241 7.50000E-01 7.50000E-01 4.00000E+00
 -1       242 5.00000E-01 1.12500E+00 4.00000E+00
 -1       243 5.00000E-01 7.50000E-01 4.50000E+00
 -1       244 5.00000E-01 3.75000E-01 5.00000E+00
 -1       245 2.50000E-01 7.50000E-01 5.00000E+00
 -1       246 5.00000E-01 7.50000E-01 5.00000E+00
 -1       247 7.50000E-01 7.50000E-01 5.00000E+00
 -1       248 5.00000E-01 1.12500E+00 5.00000E+00
 -1       249 5.00000E-01 7.50000E-01 5.50000E+00
 -1       250 5.00000E-01 3.75000E-01 6.00000E+00
 -1       251 2.50000E-01 7.50000E-01 6.00000E+00
 -1       252 5.00000E-01 7.50000E-01 6.00000E+00
 -1       253 7.50000E-01 7.50000E-01 6.00000E+00
 -1       254 5.00000E-01 1.12500E+00 6.00000E+00
 -1       255 5.00000E-01 7.50000E-01 6.50000E+00
 -1       256 5.00000E-01 3.75000E-01 7.00000E+00
 -1       257 2.50000E-01 7.50000E-01 7.00000E+00
 -1       258 5.00000E-01 7.50000E-01 7.00000E+00
 -1       259 7.50000E-01 7.50000E-01 7.00000E+00
 -1       260 5.00000E-01 1.12500E+00 7.00000E+00
 -1       261 5.00000E-01 7.50000E-01 7.50000E+00
 -3
    3C                            32                                     1
 -1         1    4    0    1
 -2         1        10        95        19        61       105       222       192         9        93
 -2        94        20        62       103       219       190       104       220       221       193
 -1         2    4    0    1
 -2        10         2        13        95       105        34       134       222        11        12
 -2        96        93       103        33       132       219       106       133       223       220
 -1         3    4    0    1
 -2        19        95        16         4       192       222       163        79        94        97
 -2        17        18       190       219       161        78       221       224       164       191
 -1         4    4    0    1
 -2        95        13         3        16       222       134        64       163        96        14
 -2        15        97       219       132        63       161       223       135       162       224
 -1         5    4    0    1
 -2        61       105       222       192        59       109       228       196       104       220
 -2       221       193        60       107       225       194       108       226       227       197
 -1         6    4    0    1
 -2       105        34       134       222       109        36       138       228       106       133
 -2       223       220       107        35       136       225       110       137       229       226
 -1         7    4    0    1
 -2       192       222       163        79       196       228       167        81       221       224
 -2       164       191       194       225       165        80       227       230       168       195
 -1         8    4    0    1
 -2       222       134        64       163       228       138        66       167       223       135
 -2       162       224       225       136        65       165       229       139       166       230
 -1         9    4    0    1
 -2        59       109       228       196        57       113       234       200       108       226
 -2       227       197        58       111       231       198       112       232       233       201
 -1        10    4    0    1
 -2       109        36       138       228       113        38       142       234       110       137
 -2       229       226       111        37       140       231       114       141       235       232
 -1        11    4    0    1
 -2       196       228       167        81       200       234       171        83       227       230
 -2       168       195       198       231       169        82       233       236       172       199
 -1        12    4    0    1
 -2       228       138        66       167       234       142        68       171       229       139
 -2       166       230       231       140        67       169       235       143       170       236
 -1        13    4    0    1
 -2        57       113       234       200        55       117       240       204       112       232
 -2       233       201        56       115       237       202       116       238       239       205
 -1        14    4    0    1
 -2       113        38       142       234       117        40       146       240       114       141
 -2       235       232       115        39       144       237       118       145       241       238
 -1        15    4    0    1
 -2       200       234       171        83       204       240       175        85       233       236
 -2       172       199       202       237       173        84       239       242       176       203
 -1        16    4    0    1
 -2       234       142        68       171       240       146        70       175       235       143
 -2       170       236       237       144        69       173       241       147       174       242
 -1        17    4    0    1
 -2        55       117       240       204        53       121       246       208       116       238
 -2       239       205        54       119       243       206       120       244       245       209
 -1        18    4    0    1
 -2       117        40       146       240       121        42       150       246       118       145
 -2       241       238       119        41       148       243       122       149       247       244
 -1        19    4    0    1
 -2       204       240       175        85       208       246       179        87       239       242
 -2       176       203       206       243       177        86       245       248       180       207
 -1        20    4    0    1
 -2       240       146        70       175       246       150        72       179       241       147
 -2       174       242       243       148        71       177       247       151       178       248
 -1        21    4    0    1
 -2        53       121       246       208        51       125       252       212       120       244
 -2       245       209        52       123       249       210       124       250       251       213
 -1        22    4    0    1
 -2       121        42       150       246       125        44       154       252       122       149
 -2       247       244       123        43       152       249       126       153       253       250
 -1        23    4    0    1
 -2       208       246       179        87       212       252       183        89       245       248
 -2       180       207       210       249       181        88       251       254       184       211
 -1        24    4    0    1
 -2       246       150        72       179       252       154        74       183       247       151
 -2       178       248       249       152        73       181       253       155       182       254
 -1        25    4    0    1
 -2        51       125       252       212        49       129       258       216       124       250
 -2       251       213        50       127       255       214       128       256       257       217
 -1        26    4    0    1
 -2       125        44       154       252       129        46       158       258       126       153
 -2       253       250       127        45       156       255       130       157       259       256
 -1        27    4    0    1
 -2       212       252       183        89       216       258       187        91       251       254
 -2       184       211       214       255       185        90       257       260       188       215
 -1        28    4    0    1
 -2       252       154        74       183       258       158        76       187       253       155
 -2       182       254       255       156        75       185       259       159       186       260
 -1        29    4    0    1
 -2        49       129       258       216         5        22       100        31       128       256
 -2       257       217        48       131       261       218        21        98        99        32
 -1        30    4    0    1
 -2       129        46       158       258        22         6        25       100       130       157
 -2       259       256       131        47       160       261        23        24       101        98
 -1        31    4    0    1
 -2       216       258       187        91        31       100        28         8       257       260
 -2       188       215       218       261       189        92        99       102        29        30
 -1        32    4    0    1
 -2       258       158        76       187       100        25         7        28       259       159
 -2       186       260       261       160        77       189       101        26        27       102
 -3
    1PSTEP                         1           1           1          
  100CL  101 1.000000000         261                     0    1           1
 -4  DISP        4    1
 -5  D1          1    2    1    0
 -5  D2          1    2    2    0
 -5  D3          1    2    3    0
 -5  ALL         1    2    0    0    1ALL
 -1         1 0.00000E+00 0.00000E+00 0.00000E+00
 -1         2 0.00000E+00 0.00000E+00 0.00000E+00
 -1         3 0.00000E+00 0.00000E+00 0.00000E+00
 -1         4 0.00000E+00 0.00000E+00 0.00000E+00
 -1         5 2.21470E-04 1.46062E+00 2.01338E-01
 -1         6-2.21470E-04 1.46062E+00 2.01338E-01
 -1         7 2.21470E-04 1.46062E+00-2.01338E-01
 -1         8-2.21470E-04 1.46062E+00-2.01338E-01
 -1         9 0.00000E+00 0.00000E+00 0.00000E+00
 -1        10 0.00000E+00 0.00000E+00 0.00000E+00
 -1        11 0.00000E+00 0.00000E+00 0.00000E+00
 -1        12 0.00000E+00 0.00000E+00 0.00000E+00
 -1        13 0.00000E+00 0.00000E+00 0.00000E+00
 -1        14 0.00000E+00 0.00000E+00 0.00000E+00
 -1        15 0.00000E+00 0.00000E+00 0.00000E+00
 -1        16 0.00000E+00 0.00000E+00 0.00000E+00
 -1        17 0.00000E+00 0.00000E+00 0.00000E+00
 -1        18 0.00000E+00 0.00000E+00 0.00000E+00
 -1        19 0.00000E+00 0.00000E+00 0.00000E+00
 -1        20 0.00000E+00 0.00000E+00 0.00000E+00
 -1        21 3.35706E-04 1.45986E+00 2.00821E-01
 -1        22 1.03740E-12 1.45747E+00 2.00304E-01
 -1        23-3.35706E-04 1.45986E+00 2.00821E-01
 -1        24-3.80535E-04 1.45974E+00 1.00210E-01
 -1        25 1.07730E-12 1.45778E+00-9.86211E-14
 -1        26 3.80535E-04 1.45974E+00-1.00210E-01
 -1        27 3.35706E-04 1.45986E+00-2.00821E-01
 -1        28 1.12303E-12 1.45747E+00-2.00304E-01
 -1        29-3.35706E-04 1.45986E+00-2.00821E-01
 -1        30-3.80535E-04 1.45974E+00-1.00210E-01
 -1        31 1.07954E-12 1.45778E+00 9.86496E-14
 -1        32 3.80535E-04 1.45974E+00 1.00210E-01
 -1        33-7.95600E-03 1.18097E-02 2.29572E-02
 -1        34-5.49569E-03 3.56827E-02 4.58944E-02
 -1        35-6.22365E-03 7.65302E-02 6.74781E-02
 -1        36-5.57235E-03 1.29596E-01 8.73260E-02
 -1        37-5.26302E-03 1.96325E-01 1.05495E-01
 -1        38-4.72485E-03 2.74206E-01 1.22148E-01
 -1        39-4.28577E-03 3.62817E-01 1.37235E-01
 -1        40-3.80591E-03 4.60901E-01 1.50747E-01
 -1        41-3.33608E-03 5.67433E-01 1.62630E-01
 -1        42-2.85979E-03 6.81522E-01 1.72977E-01
 -1        43-2.36155E-03 8.01625E-01 1.81671E-01
 -1        44-1.86286E-03 9.27500E-01 1.88894E-01
 -1        45-1.50937E-03 1.05700E+00 1.94296E-01
 -1        46-9.35562E-04 1.19099E+00 1.98525E-01
 -1        47-5.21953E-04 1.32450E+00 2.00659E-01
 -1        48 5.21953E-04 1.32450E+00 2.00659E-01
 -1        49 9.35562E-04 1.19099E+00 1.98525E-01
 -1        50 1.50937E-03 1.05700E+00 1.94296E-01
 -1        51 1.86286E-03 9.27500E-01 1.88894E-01
 -1        52 2.36155E-03 8.01625E-01 1.81671E-01
 -1        53 2.85979E-03 6.81522E-01 1.72977E-01
 -1        54 3.33608E-03 5.67433E-01 1.62630E-01
 -1        55 3.80591E-03 4.60901E-01 1.50747E-01
 -1        56 4.28577E-03 3.62817E-01 1.37235E-01
 -1        57 4.72485E-03 2.74206E-01 1.22148E-01
 -1        58 5.26302E-03 1.96325E-01 1.05495E-01
 -1        59 5.57235E-03 1.29596E-01 8.73260E-02
 -1        60 6.22365E-03 7.65302E-02 6.74781E-02
 -1        61 5.49569E-03 3.56827E-02 4.58944E-02
 -1        62 7.95600E-03 1.18097E-02 2.29572E-02
 -1        63 7.95600E-03 1.18097E-02-2.29572E-02
 -1        64 5.49569E-03 3.56827E-02-4.58944E-02
 -1        65 6.22365E-03 7.65302E-02-6.74781E-02
 -1        66 5.57235E-03 1.29596E-01-8.73260E-02
 -1        67 5.26302E-03 1.96325E-01-1.05495E-01
 -1        68 4.72485E-03 2.74206E-01-1.22148E-01
 -1        69 4.28577E-03 3.62817E-01-1.37235E-01
 -1        70 3.80591E-03 4.60901E-01-1.50747E-01
 -1        71 3.33608E-03 5.67433E-01-1.62630E-01
 -1        72 2.85979E-03 6.81522E-01-1.72977E-01
 -1        73 2.36155E-03 8.01625E-01-1.81671E-01
 -1        74 1.86286E-03 9.27500E-01-1.88894E-01
 -1        75 1.50937E-03 1.05700E+00-1.94296E-01
 -1        76 9.35562E-04 1.19099E+00-1.98525E-01
 -1        77 5.21953E-04 1.32450E+00-2.00659E-01
 -1        78-7.95600E-03 1.18097E-02-2.29572E-02
 -1        79-5.49569E-03 3.56827E-02-4.58944E-02
 -1        80-6.22365E-03 7.65302E-02-6.74781E-02
 -1        81-5.57235E-03 1.29596E-01-8.73260E-02
 -1        82-5.26302E-03 1.96325E-01-1.05495E-01
 -1        83-4.72485E-03 2.74206E-01-1.22148E-01
 -1        84-4.28577E-03 3.62817E-01-1.37235E-01
 -1        85-3.80591E-03 4.60901E-01-1.50747E-01
 -1        86-3.33608E-03 5.67433E-01-1.62630E-01
 -1        87-2.85979E-03 6.81522E-01-1.72977E-01
 -1        88-2.36155E-03 8.01625E-01-1.81671E-01
 -1        89-1.86286E-03 9.27500E-01-1.88894E-01
 -1        90-1.50937E-03 1.05700E+00-1.94296E-01
 -1        91-9.35562E-04 1.19099E+00-1.98525E-01
 -1        92-5.21953E-04 1.32450E+00-2.00659E-01
 -1        93 0.00000E+00 0.00000E+00 0.00000E+00
 -1        94 0.00000E+00 0.00000E+00 0.00000E+00
 -1        95 0.00000E+00 0.00000E+00 0.00000E+00
 -1        96 0.00000E+00 0.00000E+00 0.00000E+00
 -1        97 0.00000E+00 0.00000E+00 0.00000E+00
 -1        98 1.05631E-12 1.46289E+00 1.01164E-01
 -1        99 1.07872E-12 1.46232E+00 4.86264E-14
 -1       100 1.07863E-12 1.47022E+00-9.66241E-16
 -1       101 1.07806E-12 1.46232E+00-4.99537E-14
 -1       102 1.10044E-12 1.46289E+00-1.01164E-01
 -1       103 9.19721E-16 1.40962E-02 2.21061E-02
 -1       104 2.74287E-03 3.75252E-02 4.62916E-02
 -1       105 1.55598E-14 3.79529E-02 4.66743E-02
 -1       106-2.74287E-03 3.75252E-02 4.62916E-02
 -1       107 4.06206E-14 7.84820E-02 6.75356E-02
 -1       108 2.77935E-03 1.31040E-01 8.75027E-02
 -1       109 7.69349E-14 1.31622E-01 8.75678E-02
 -1       110-2.77935E-03 1.31040E-01 8.75027E-02
 -1       111 1.22080E-13 1.98035E-01 1.05632E-01
 -1       112 2.36271E-03 2.75419E-01 1.22285E-01
 -1       113 1.76690E-13 2.75818E-01 1.22303E-01
 -1       114-2.36271E-03 2.75419E-01 1.22285E-01
 -1       115 2.38957E-13 3.64251E-01 1.37383E-01
 -1       116 1.90382E-03 4.61828E-01 1.50873E-01
 -1       117 3.09130E-13 4.62117E-01 1.50884E-01
 -1       118-1.90382E-03 4.61828E-01 1.50873E-01
 -1       119 3.84741E-13 5.68590E-01 1.62794E-01
 -1       120 1.42601E-03 6.82092E-01 1.73083E-01
 -1       121 4.66325E-13 6.82220E-01 1.73064E-01
 -1       122-1.42601E-03 6.82092E-01 1.73083E-01
 -1       123 5.54211E-13 8.02615E-01 1.81823E-01
 -1       124 9.44552E-04 9.27726E-01 1.88917E-01
 -1       125 6.45996E-13 9.27514E-01 1.88830E-01
 -1       126-9.44552E-04 9.27726E-01 1.88917E-01
 -1       127 7.41449E-13 1.05788E+00 1.94731E-01
 -1       128 4.36953E-04 1.18994E+00 1.98490E-01
 -1       129 8.37868E-13 1.18917E+00 1.98331E-01
 -1       130-4.36953E-04 1.18994E+00 1.98490E-01
 -1       131 9.37692E-13 1.32657E+00 2.00533E-01
 -1       132 8.52356E-15 5.56664E-03-1.10029E-14
 -1       133-2.76193E-03 3.23771E-02 2.24008E-02
 -1       134 2.53858E-14 3.23361E-02-2.29628E-14
 -1       135 2.76193E-03 3.23771E-02-2.24008E-02
 -1       136 5.44134E-14 7.14664E-02-3.35847E-14
 -1       137-2.78635E-03 1.26751E-01 4.30860E-02
 -1       138 9.31586E-14 1.25843E-01-4.35991E-14
 -1       139 2.78635E-03 1.26751E-01-4.30860E-02
 -1       140 1.41792E-13 1.92293E-01-5.28369E-14
 -1       141-2.36407E-03 2.71553E-01 6.05487E-02
 -1       142 1.98971E-13 2.70741E-01-6.14850E-14
 -1       143 2.36407E-03 2.71553E-01-6.05487E-02
 -1       144 2.64432E-13 3.59596E-01-6.91270E-14
 -1       145-1.90301E-03 4.58757E-01 7.48322E-02
 -1       146 3.36968E-13 4.58023E-01-7.59905E-14
 -1       147 1.90301E-03 4.58757E-01-7.48322E-02
 -1       148 4.16191E-13 5.64967E-01-8.24020E-14
 -1       149-1.43017E-03 6.79783E-01 8.59475E-02
 -1       150 5.00961E-13 6.79143E-01-8.77538E-14
 -1       151 1.43017E-03 6.79783E-01-8.59475E-02
 -1       152 5.92019E-13 8.00020E-01-9.19499E-14
 -1       153-9.45106E-04 9.26209E-01 9.39214E-02
 -1       154 6.85667E-13 9.25551E-01-9.58631E-14
 -1       155 9.45106E-04 9.26209E-01-9.39214E-02
 -1       156 7.82784E-13 1.05627E+00-9.88898E-14
 -1       157-4.24249E-04 1.18919E+00 9.87214E-02
 -1       158 8.80197E-13 1.18803E+00-9.89799E-14
 -1       159 4.24249E-04 1.18919E+00-9.87214E-02
 -1       160 9.79660E-13 1.32590E+00-9.91226E-14
 -1       161 5.75084E-15 1.40962E-02-2.21061E-02