
 displacements (vx,vy,vz) for set NALL and time  0.1000000E+01

         1  0.000000E+00  0.000000E+00  0.000000E+00
         2  0.000000E+00  0.000000E+00  0.000000E+00
         3  0.000000E+00  0.000000E+00  0.000000E+00
         4  0.000000E+00  0.000000E+00  0.000000E+00
         5 -3.345787E-05  4.631743E-02  4.309891E-03
         6  3.345787E-05  4.631743E-02  4.309891E-03
         7 -3.345787E-05  4.631743E-02 -4.309891E-03
         8  3.345787E-05  4.631743E-02 -4.309891E-03
         9  0.000000E+00  0.000000E+00  0.000000E+00
        10  0.000000E+00  0.000000E+00  0.000000E+00
        11  0.000000E+00  0.000000E+00  0.000000E+00
        12  0.000000E+00  0.000000E+00  0.000000E+00
        13  0.000000E+00  0.000000E+00  0.000000E+00
        14  0.000000E+00  0.000000E+00  0.000000E+00
        15  0.000000E+00  0.000000E+00  0.000000E+00
        16  0.000000E+00  0.000000E+00  0.000000E+00
        17  0.000000E+00  0.000000E+00  0.000000E+00
        18  0.000000E+00  0.000000E+00  0.000000E+00
        19  0.000000E+00  0.000000E+00  0.000000E+00
        20  0.000000E+00  0.000000E+00  0.000000E+00
        21 -1.475352E-05  4.625423E-02  4.304294E-03
        22 -5.178343E-15  4.624530E-02  4.292386E-03
        23  1.475352E-05  4.625423E-02  4.304294E-03
        24  1.320512E-06  4.626217E-02  2.135620E-03
        25 -6.212045E-15  4.622806E-02  4.930120E-16
        26 -1.320512E-06  4.626217E-02 -2.135620E-03
        27 -1.475352E-05  4.625423E-02 -4.304294E-03
        28 -7.260988E-15  4.624530E-02 -4.292386E-03
        29  1.475352E-05  4.625423E-02 -4.304294E-03
        30  1.320512E-06  4.626217E-02 -2.135620E-03
        31 -6.242067E-15  4.622806E-02 -6.321292E-16
        32 -1.320512E-06  4.626217E-02  2.135620E-03
        33 -1.316965E-04  3.190162E-04  4.940523E-04
        34 -8.926847E-05  1.064511E-03  9.840203E-04
        35 -1.045154E-04  2.338221E-03  1.441623E-03
        36 -9.194949E-05  4.013383E-03  1.864367E-03
        37 -8.837096E-05  6.118480E-03  2.250414E-03
        38 -7.838305E-05  8.580445E-03  2.604924E-03
        39 -7.164878E-05  1.138659E-02  2.925585E-03
        40 -6.335418E-05  1.449285E-02  3.212815E-03
        41 -5.580697E-05  1.787020E-02  3.465543E-03
        42 -4.826988E-05  2.148415E-02  3.684949E-03
        43 -3.896005E-05  2.529982E-02  3.870728E-03
        44 -3.123038E-05  2.929034E-02  4.023615E-03
        45 -2.512054E-05  3.339931E-02  4.139821E-03
        46 -2.362484E-05  3.762654E-02  4.223666E-03
        47  3.664745E-06  4.191769E-02  4.277170E-03
        48 -3.664745E-06  4.191769E-02  4.277170E-03
        49  2.362484E-05  3.762654E-02  4.223666E-03
        50  2.512054E-05  3.339931E-02  4.139821E-03
        51  3.123038E-05  2.929034E-02  4.023615E-03
        52  3.896005E-05  2.529982E-02  3.870728E-03
        53  4.826988E-05  2.148415E-02  3.684949E-03
        54  5.580697E-05  1.787020E-02  3.465543E-03
        55  6.335418E-05  1.449285E-02  3.212815E-03
        56  7.164878E-05  1.138659E-02  2.925585E-03
        57  7.838305E-05  8.580445E-03  2.604924E-03
        58  8.837096E-05  6.118480E-03  2.250414E-03
        59  9.194949E-05  4.013383E-03  1.864367E-03
        60  1.045154E-04  2.338221E-03  1.441623E-03
        61  8.926847E-05  1.064511E-03  9.840203E-04
        62  1.316965E-04  3.190162E-04  4.940523E-04
        63  1.316965E-04  3.190162E-04 -4.940523E-04
        64  8.926847E-05  1.064511E-03 -9.840203E-04
        65  1.045154E-04  2.338221E-03 -1.441623E-03
        66  9.194949E-05  4.013383E-03 -1.864367E-03
        67  8.837096E-05  6.118480E-03 -2.250414E-03
        68  7.838305E-05  8.580445E-03 -2.604924E-03
        69  7.164878E-05  1.138659E-02 -2.925585E-03
        70  6.335418E-05  1.449285E-02 -3.212815E-03
        71  5.580697E-05  1.787020E-02 -3.465543E-03
        72  4.826988E-05  2.148415E-02 -3.684949E-03
        73  3.896005E-05  2.529982E-02 -3.870728E-03
        74  3.123038E-05  2.929034E-02 -4.023615E-03
        75  2.512054E-05  3.339931E-02 -4.139821E-03
        76  2.362484E-05  3.762654E-02 -4.223666E-03
        77 -3.664745E-06  4.191769E-02 -4.277170E-03
        78 -1.316965E-04  3.190162E-04 -4.940523E-04
        79 -8.926847E-05  1.064511E-03 -9.840203E-04
        80 -1.045154E-04  2.338221E-03 -1.441623E-03
        81 -9.194949E-05  4.013383E-03 -1.864367E-03
        82 -8.837096E-05  6.118480E-03 -2.250414E-03
        83 -7.838305E-05  8.580445E-03 -2.604924E-03
        84 -7.164878E-05  1.138659E-02 -2.925585E-03
        85 -6.335418E-05  1.449285E-02 -3.212815E-03
        86 -5.580697E-05  1.787020E-02 -3.465543E-03
        87 -4.826988E-05  2.148415E-02 -3.684949E-03
        88 -3.896005E-05  2.529982E-02 -3.870728E-03
        89 -3.123038E-05  2.929034E-02 -4.023615E-03
        90 -2.512054E-05  3.339931E-02 -4.139821E-03
        91 -2.362484E-05  3.762654E-02 -4.223666E-03
        92  3.664745E-06  4.191769E-02 -4.277170E-03
        93  0.000000E+00  0.000000E+00  0.000000E+00
        94  0.000000E+00  0.000000E+00  0.000000E+00
        95  0.000000E+00  0.000000E+00  0.000000E+00
        96  0.000000E+00  0.000000E+00  0.000000E+00
        97  0.000000E+00  0.000000E+00  0.000000E+00
        98 -5.719597E-15  4.622951E-02  2.139128E-03
        99 -6.213276E-15  4.622606E-02 -3.561325E-16
       100 -6.211015E-15  4.621664E-02 -6.133874E-17
       101 -6.213916E-15  4.622606E-02  2.224960E-16
       102 -6.734133E-15  4.622951E-02 -2.139128E-03
       103  7.005088E-17  3.752076E-04  4.844231E-04
       104  4.407386E-05  1.109020E-03  9.891363E-04
       105  5.290907E-17  1.118752E-03  9.941875E-04
       106 -4.407386E-05  1.109020E-03  9.891363E-04
       107 -1.943432E-17  2.387648E-03  1.441728E-03
       108  4.596995E-05  4.049212E-03  1.866857E-03
       109 -1.630776E-16  4.063263E-03  1.867467E-03
       110 -4.596995E-05  4.049212E-03  1.866857E-03
       111 -3.546814E-16  6.161583E-03  2.251881E-03
       112  3.916991E-05  8.610978E-03  2.606963E-03
       113 -5.969617E-16  8.621036E-03  2.606982E-03
       114 -3.916991E-05  8.610978E-03  2.606963E-03
       115 -8.726913E-16  1.142211E-02  2.927219E-03
       116  3.168827E-05  1.451646E-02  3.214642E-03
       117 -1.180479E-15  1.452455E-02  3.214561E-03
       118 -3.168827E-05  1.451646E-02  3.214642E-03
       119 -1.546574E-15  1.789840E-02  3.467240E-03
       120  2.409018E-05  2.150217E-02  3.686875E-03
       121 -1.967619E-15  2.150730E-02  3.686684E-03
       122 -2.409018E-05  2.150217E-02  3.686875E-03
       123 -2.397876E-15  2.531990E-02  3.872397E-03
       124  1.579675E-05  2.929795E-02  4.025141E-03
       125 -2.840092E-15  2.930127E-02  4.024935E-03
       126 -1.579675E-05  2.929795E-02  4.025141E-03
       127 -3.429697E-15  3.341579E-02  4.141674E-03
       128  1.107965E-05  3.763684E-02  4.226225E-03
       129 -3.995936E-15  3.762941E-02  4.226533E-03
       130 -1.107965E-05  3.763684E-02  4.226225E-03
       131 -4.584965E-15  4.191958E-02  4.277223E-03
       132 -5.334991E-17  1.929581E-04  6.440680E-17
       133 -4.512711E-05  1.005321E-03  4.859942E-04
       134 -1.647513E-16  1.007981E-03  1.322486E-16
       135  4.512711E-05  1.005321E-03 -4.859942E-04
       136 -3.533738E-16  2.239480E-03  1.856493E-16
       137 -4.585994E-05  3.961720E-03  9.254743E-04
       138 -5.935465E-16  3.946706E-03  2.380311E-16
       139  4.585994E-05  3.961720E-03 -9.254743E-04
       140 -8.986681E-16  6.040880E-03  2.824347E-16
       141 -3.921287E-05  8.531398E-03  1.296328E-03
       142 -1.241357E-15  8.517157E-03  3.149472E-16
       143  3.921287E-05  8.531398E-03 -1.296328E-03
       144 -1.622615E-15  1.132477E-02  3.350862E-16
       145 -3.172228E-05  1.445277E-02  1.600028E-03
       146 -2.013838E-15  1.443953E-02  3.716076E-16
       147  3.172228E-05  1.445277E-02 -1.600028E-03
       148 -2.489490E-15  1.782316E-02  3.880563E-16
       149 -2.392050E-05  2.145336E-02  1.836355E-03
       150 -2.964426E-15  2.144261E-02  4.040905E-16
       151  2.392050E-05  2.145336E-02 -1.836355E-03
       152 -3.441908E-15  2.526675E-02  4.158379E-16
       153 -1.654643E-05  2.926555E-02  2.004844E-03
       154 -3.925679E-15  2.925552E-02  4.466913E-16
       155  1.654643E-05  2.926555E-02 -2.004844E-03
       156 -4.496403E-15  3.338534E-02  4.804710E-16
       157 -8.132659E-06  3.761452E-02  2.108111E-03
       158 -5.097268E-15  3.760423E-02  5.061327E-16
       159  8.132659E-06  3.761452E-02 -2.108111E-03
       160 -5.663186E-15  4.191456E-02  4.943081E-16
       161 -1.297341E-16  3.752076E-04 -4.844231E-04
       162  4.407386E-05  1.109020E-03 -9.891363E-04
       163 -3.537345E-16  1.118752E-03 -9.941875E-04
       164 -4.407386E-05  1.109020E-03 -9.891363E-04
       165 -6.460574E-16  2.387648E-03 -1.441728E-03
       166  4.596995E-05  4.049212E-03 -1.866857E-03
       167 -1.004276E-15  4.063263E-03 -1.867467E-03
       168 -4.596995E-05  4.049212E-03 -1.866857E-03
       169 -1.414048E-15  6.161583E-03 -2.251881E-03
       170  3.916991E-05  8.610978E-03 -2.606963E-03
       171 -1.863066E-15  8.621036E-03 -2.606982E-03
       172 -3.916991E-05  8.610978E-03 -2.606963E-03
       173 -2.353044E-15  1.142211E-02 -2.927219E-03
       174  3.168827E-05  1.451646E-02 -3.214642E-03
       175 -2.862784E-15  1.452455E-02 -3.214561E-03
       176 -3.168827E-05  1.451646E-02 -3.214642E-03
       177 -3.388153E-15  1.789840E-02 -3.467240E-03
       178  2.409018E-05  2.150217E-02 -3.686875E-03
       179 -3.915705E-15  2.150730E-02 -3.686684E-03
       180 -2.409018E-05  2.150217E-02 -3.686875E-03
       181 -4.437118E-15  2.531990E-02 -3.872397E-03
       182  1.579675E-05  2.929795E-02 -4.025141E-03
       183 -4.937023E-15  2.930127E-02 -4.024935E-03
       184 -1.579675E-05  2.929795E-02 -4.025141E-03
       185 -5.548513E-15  3.341579E-02 -4.141674E-03
       186  1.107965E-05  3.763684E-02 -4.226225E-03
       187 -6.104492E-15  3.762941E-02 -4.226533E-03
       188 -1.107965E-05  3.763684E-02 -4.226225E-03
       189 -6.735517E-15  4.191958E-02 -4.277223E-03
       190 -5.677978E-17  1.929581E-04 -7.820535E-17
       191 -4.512711E-05  1.005321E-03 -4.859942E-04
       192 -1.660676E-16  1.007981E-03 -1.608232E-16
       193  4.512711E-05  1.005321E-03  4.859942E-04
       194 -3.566072E-16  2.239480E-03 -2.327511E-16
       195 -4.585994E-05  3.961720E-03 -9.254743E-04
       196 -6.029248E-16  3.946706E-03 -2.933242E-16
       197  4.585994E-05  3.961720E-03  9.254743E-04
       198 -9.011379E-16  6.040880E-03 -3.498077E-16
       199 -3.921287E-05  8.531398E-03 -1.296328E-03
       200 -1.233822E-15  8.517157E-03 -4.069654E-16
       201  3.921287E-05  8.531398E-03  1.296328E-03
       202 -1.627991E-15  1.132477E-02 -4.474172E-16
       203 -3.172228E-05  1.445277E-02 -1.600028E-03
       204 -2.041580E-15  1.443953E-02 -4.796701E-16
       205  3.172228E-05  1.445277E-02  1.600028E-03
       206 -2.477956E-15  1.782316E-02 -5.210621E-16
       207 -2.392050E-05  2.145336E-02 -1.836355E-03
       208 -2.956292E-15  2.144261E-02 -5.455420E-16
       209  2.392050E-05  2.145336E-02  1.836355E-03
       210 -3.450744E-15  2.526675E-02 -5.859029E-16
       211 -1.654643E-05  2.926555E-02 -2.004844E-03
       212 -3.931926E-15  2.925552E-02 -5.951050E-16
       213  1.654643E-05  2.926555E-02  2.004844E-03
       214 -4.485534E-15  3.338534E-02 -6.349854E-16
       215 -8.132659E-06  3.761452E-02 -2.108111E-03
       216 -5.067995E-15  3.760423E-02 -6.615531E-16
       217  8.132659E-06  3.761452E-02  2.108111E-03
       218 -5.654256E-15  4.191456E-02 -6.599198E-16
       219 -4.225148E-17  2.485704E-04 -6.489258E-18
       220 -5.816628E-17  1.057038E-03  4.905476E-04
       221 -1.603806E-16  1.051126E-03 -8.637703E-17
       222 -1.612243E-16  1.058512E-03 -1.557699E-17
       223 -1.604755E-16  1.051126E-03  5.678509E-17
       224 -2.628377E-16  1.057038E-03 -4.905476E-04
       225 -3.447492E-16  2.290470E-03 -2.166346E-17
       226 -3.831803E-16  4.010113E-03  9.279500E-04
       227 -5.965009E-16  3.980817E-03 -1.609217E-16
       228 -5.947405E-16  3.993368E-03 -2.993798E-17
       229 -5.922501E-16  3.980817E-03  1.035278E-16
       230 -8.009815E-16  4.010113E-03 -9.279500E-04
       231 -8.914039E-16  6.084914E-03 -3.429806E-17
       232 -9.183192E-16  8.571328E-03  1.298218E-03
       233 -1.239162E-15  8.547076E-03 -2.214551E-16
       234 -1.243620E-15  8.556521E-03 -4.146396E-17
       235 -1.240544E-15  8.547076E-03  1.350600E-16
       236 -1.554854E-15  8.571328E-03 -1.298218E-03
       237 -1.616688E-15  1.136059E-02 -5.525002E-17
       238 -1.619264E-15  1.448461E-02  1.601748E-03
       239 -2.043938E-15  1.446336E-02 -2.686229E-16
       240 -2.039688E-15  1.447142E-02 -5.824876E-17
       241 -2.025717E-15  1.446336E-02  1.543497E-16
       242 -2.457236E-15  1.448461E-02 -1.601748E-03
       243 -2.479909E-15  1.785086E-02 -6.034940E-17
       244 -2.466343E-15  2.147709E-02  1.838058E-03
       245 -2.961432E-15  2.146086E-02 -3.067886E-16
       246 -2.980472E-15  2.146724E-02 -7.546047E-17
       247 -2.979821E-15  2.146086E-02  1.648868E-16
       248 -3.434969E-15  2.147709E-02 -1.838058E-03
       249 -3.437788E-15  2.528592E-02 -8.665205E-17
       250 -3.402704E-15  2.928036E-02  2.006691E-03
       251 -3.934167E-15  2.926846E-02 -3.448847E-16
       252 -3.939693E-15  2.927302E-02 -8.716985E-17
       253 -3.934787E-15  2.926846E-02  1.823765E-16
       254 -4.451029E-15  2.928036E-02 -2.006691E-03
       255 -4.484342E-15  3.339645E-02 -8.566341E-17
       256 -4.522424E-15  3.761926E-02  2.108721E-03
       257 -5.082306E-15  3.761089E-02 -3.666094E-16
       258 -5.092714E-15  3.761546E-02 -8.023096E-17
       259 -5.100087E-15  3.761089E-02  2.088173E-16
       260 -5.595956E-15  3.761926E-02 -2.108721E-03
       261 -5.644573E-15  4.191231E-02 -6.765422E-17

 stresses (elem, integ.pnt.,sxx,syy,szz,sxy,sxz,syz) for set EALL and time  0.1000000E+01

         1   1  4.357478E+01  4.682887E+01  3.377245E+02 -5.322038E+00  2.124518E+01  1.357635E+01
         1   2  4.213626E+01  4.513803E+01  3.322899E+02  1.540595E+00  4.531381E+00  2.345438E+01
         1   3 -5.264542E-01 -1.025035E+01  7.729021E+01 -5.373145E+00  5.702769E+00 -5.476037E+00
         1   4 -8.513972E-01 -1.056660E+01  7.584331E+01  1.489690E+00  1.206792E+00  4.445301E+00
         1   5 -1.232268E+01 -1.017846E+01  3.032762E+02 -1.784618E+00 -9.194896E+00  5.308635E-01
         1   6 -8.504857E+00 -7.685550E+00  3.131329E+02  7.194070E-01 -2.818216E+00 -4.235535E-01
         1   7 -6.675188E+00 -8.507921E+00  7.695620E+01 -2.314031E+00 -2.491335E+00  1.842284E+01
         1   8 -5.671058E+00 -7.854591E+00  7.952725E+01  1.907488E-01 -8.002352E-01  1.746985E+01
         2   1  4.213626E+01  4.513803E+01  3.322899E+02 -1.540595E+00 -4.531381E+00  2.345438E+01
         2   2  4.357478E+01  4.682887E+01  3.377245E+02  5.322038E+00 -2.124518E+01  1.357635E+01
         2   3 -8.513972E-01 -1.056660E+01  7.584331E+01 -1.489690E+00 -1.206792E+00  4.445301E+00
         2   4 -5.264542E-01 -1.025035E+01  7.729021E+01  5.373145E+00 -5.702769E+00 -5.476037E+00
         2   5 -8.504857E+00 -7.685550E+00  3.131329E+02 -7.194070E-01  2.818216E+00 -4.235535E-01
         2   6 -1.232268E+01 -1.017846E+01  3.032762E+02  1.784618E+00  9.194896E+00  5.308635E-01
         2   7 -5.671058E+00 -7.854591E+00  7.952725E+01 -1.907488E-01  8.002352E-01  1.746985E+01
         2   8 -6.675188E+00 -8.507921E+00  7.695620E+01  2.314031E+00  2.491335E+00  1.842284E+01
         3   1  5.264542E-01  1.025035E+01 -7.729021E+01 -5.373145E+00 -5.702769E+00 -5.476037E+00
         3   2  8.513972E-01  1.056660E+01 -7.584331E+01  1.489690E+00 -1.206792E+00  4.445301E+00
         3   3 -4.357478E+01 -4.682887E+01 -3.377245E+02 -5.322038E+00 -2.124518E+01  1.357635E+01
         3   4 -4.213626E+01 -4.513803E+01 -3.322899E+02  1.540595E+00 -4.531381E+00  2.345438E+01
         3   5  6.675188E+00  8.507921E+00 -7.695620E+01 -2.314031E+00  2.491335E+00  1.842284E+01
         3   6  5.671058E+00  7.854591E+00 -7.952725E+01  1.907488E-01  8.002352E-01  1.746985E+01
         3   7  1.232268E+01  1.017846E+01 -3.032762E+02 -1.784618E+00  9.194896E+00  5.308635E-01
         3   8  8.504857E+00  7.685550E+00 -3.131329E+02  7.194070E-01  2.818216E+00 -4.235535E-01
         4   1  8.513972E-01  1.056660E+01 -7.584331E+01 -1.489690E+00  1.206792E+00  4.445301E+00
         4   2  5.264542E-01  1.025035E+01 -7.729021E+01  5.373145E+00  5.702769E+00 -5.476037E+00
         4   3 -4.213626E+01 -4.513803E+01 -3.322899E+02 -1.540595E+00  4.531381E+00  2.345438E+01
         4   4 -4.357478E+01 -4.682887E+01 -3.377245E+02  5.322038E+00  2.124518E+01  1.357635E+01
         4   5  5.671058E+00  7.854591E+00 -7.952725E+01 -1.907488E-01 -8.002352E-01  1.746985E+01
         4   6  6.675188E+00  8.507921E+00 -7.695620E+01  2.314031E+00 -2.491335E+00  1.842284E+01
         4   7  8.504857E+00  7.685550E+00 -3.131329E+02 -7.194070E-01 -2.818216E+00 -4.235535E-01
         4   8  1.232268E+01  1.017846E+01 -3.032762E+02  1.784618E+00 -9.194896E+00  5.308635E-01
         5   1  3.450960E+00 -5.687510E-01  2.896180E+02  2.810288E+00  3.653800E+00  9.251839E+00
         5   2  2.988297E+00 -2.047967E+00  2.851072E+02 -1.629892E+00  1.477561E+00  8.010956E+00
         5   3  7.710385E+00  1.303992E+01  8.441048E+01  2.560836E+00  9.220914E-01  9.659532E+00
         5   4  7.883831E+00  1.315258E+01  8.363982E+01 -1.879398E+00  3.605786E-01  9.077674E+00
         5   5 -2.605831E+00 -3.290337E+00  2.637144E+02 -4.864936E-01 -1.817910E+00  2.734301E+00
         5   6 -1.601650E+00 -2.514565E+00  2.659450E+02 -1.232989E-01 -7.851990E-01  2.899798E+00
         5   7 -1.949110E+00 -3.233897E+00  6.934990E+01 -4.886772E-01 -4.405286E-01  1.554200E+01
         5   8 -1.587657E+00 -2.908292E+00  7.018057E+01 -1.282981E-01 -1.422058E-01  1.482390E+01
         6   1  2.988297E+00 -2.047967E+00  2.851072E+02  1.629892E+00 -1.477561E+00  8.010956E+00
         6   2  3.450960E+00 -5.687510E-01  2.896180E+02 -2.810288E+00 -3.653800E+00  9.251839E+00
         6   3  7.883831E+00  1.315258E+01  8.363982E+01  1.879398E+00 -3.605786E-01  9.077674E+00
         6   4  7.710385E+00  1.303992E+01  8.441048E+01 -2.560836E+00 -9.220914E-01  9.659532E+00
         6   5 -1.601650E+00 -2.514565E+00  2.659450E+02  1.232989E-01  7.851990E-01  2.899798E+00
         6   6 -2.605831E+00 -3.290337E+00  2.637144E+02  4.864936E-01  1.817910E+00  2.734301E+00
         6   7 -1.587657E+00 -2.908292E+00  7.018057E+01  1.282981E-01  1.422058E-01  1.482390E+01
         6   8 -1.949110E+00 -3.233897E+00  6.934990E+01  4.886772E-01  4.405286E-01  1.554200E+01
         7   1 -7.710385E+00 -1.303992E+01 -8.441048E+01  2.560836E+00 -9.220914E-01  9.659532E+00
         7   2 -7.883831E+00 -1.315258E+01 -8.363982E+01 -1.879398E+00 -3.605786E-01  9.077674E+00
         7   3 -3.450960E+00  5.687510E-01 -2.896180E+02  2.810288E+00 -3.653800E+00  9.251839E+00
         7   4 -2.988297E+00  2.047967E+00 -2.851072E+02 -1.629892E+00 -1.477561E+00  8.010956E+00
         7   5  1.949110E+00  3.233897E+00 -6.934990E+01 -4.886772E-01  4.405286E-01  1.554200E+01
         7   6  1.587657E+00  2.908292E+00 -7.018057E+01 -1.282981E-01  1.422058E-01  1.482390E+01
         7   7  2.605831E+00  3.290337E+00 -2.637144E+02 -4.864936E-01  1.817910E+00  2.734301E+00
         7   8  1.601650E+00  2.514565E+00 -2.659450E+02 -1.232989E-01  7.851990E-01  2.899798E+00
         8   1 -7.883831E+00 -1.315258E+01 -8.363982E+01  1.879398E+00  3.605786E-01  9.077674E+00
         8   2 -7.710385E+00 -1.303992E+01 -8.441048E+01 -2.560836E+00  9.220914E-01  9.659532E+00
         8   3 -2.988297E+00  2.047967E+00 -2.851072E+02  1.629892E+00  1.477561E+00  8.010956E+00
         8   4 -3.450960E+00  5.687510E-01 -2.896180E+02 -2.810288E+00  3.653800E+00  9.251839E+00
         8   5  1.587657E+00  2.908292E+00 -7.018057E+01  1.282981E-01 -1.422058E-01  1.482390E+01
         8   6  1.949110E+00  3.233897E+00 -6.934990E+01  4.886772E-01 -4.405286E-01  1.554200E+01
         8   7  1.601650E+00  2.514565E+00 -2.659450E+02  1.232989E-01 -7.851990E-01  2.899798E+00
         8   8  2.605831E+00  3.290337E+00 -2.637144E+02  4.864936E-01 -1.817910E+00  2.734301E+00
         9   1  2.181191E+00  3.850525E+00  2.470914E+02 -2.272506E-01  5.423262E-01  6.645513E+00
         9   2  1.853282E+00  3.426143E+00  2.461767E+02  5.819496E-01  1.168849E-02  5.739495E+00
         9   3  1.713224E-01  1.532849E-01  6.586840E+01 -2.783514E-01  2.642385E-01  1.237224E+01
         9   4 -5.757763E-02 -2.269883E-01  6.547605E+01  5.308634E-01  1.172132E-01  1.124275E+01
         9   5 -7.519287E-01 -1.070644E+00  2.217952E+02 -1.507722E-01 -7.269896E-01  4.686111E+00
         9   6 -5.163918E-01 -7.965286E-01  2.222283E+02 -8.602938E-02 -4.443492E-01  4.348767E+00
         9   7 -6.003681E-01 -1.091662E+00  5.912317E+01 -8.545635E-02 -8.046025E-02  1.405689E+01
         9   8 -4.735280E-01 -8.939993E-01  5.929673E+01 -1.020560E-02 -9.568349E-03  1.290823E+01
        10   1  1.853282E+00  3.426143E+00  2.461767E+02 -5.819496E-01 -1.168849E-02  5.739495E+00
        10   2  2.181191E+00  3.850525E+00  2.470914E+02  2.272506E-01 -5.423262E-01  6.645513E+00
        10   3 -5.757763E-02 -2.269883E-01  6.547605E+01 -5.308634E-01 -1.172132E-01  1.124275E+01
        10   4  1.713224E-01  1.532849E-01  6.586840E+01  2.783514E-01 -2.642385E-01  1.237224E+01
        10   5 -5.163918E-01 -7.965286E-01  2.222283E+02  8.602938E-02  4.443492E-01  4.348767E+00
        10   6 -7.519287E-01 -1.070644E+00  2.217952E+02  1.507722E-01  7.269896E-01  4.686111E+00
        10   7 -4.735280E-01 -8.939993E-01  5.929673E+01  1.020560E-02  9.568349E-03  1.290823E+01
        10   8 -6.003681E-01 -1.091662E+00  5.912317E+01  8.545635E-02  8.046025E-02  1.405689E+01
        11   1 -1.713224E-01 -1.532849E-01 -6.586840E+01 -2.783514E-01 -2.642385E-01  1.237224E+01
        11   2  5.757763E-02  2.269883E-01 -6.547605E+01  5.308634E-01 -1.172132E-01  1.124275E+01
        11   3 -2.181191E+00 -3.850525E+00 -2.470914E+02 -2.272506E-01 -5.423262E-01  6.645513E+00
        11   4 -1.853282E+00 -3.426143E+00 -2.461767E+02  5.819496E-01 -1.168849E-02  5.739495E+00
        11   5  6.003681E-01  1.091662E+00 -5.912317E+01 -8.545635E-02  8.046025E-02  1.405689E+01
        11   6  4.735280E-01  8.939993E-01 -5.929673E+01 -1.020560E-02  9.568349E-03  1.290823E+01
        11   7  7.519287E-01  1.070644E+00 -2.217952E+02 -1.507722E-01  7.269896E-01  4.686111E+00
        11   8  5.163918E-01  7.965286E-01 -2.222283E+02 -8.602938E-02  4.443492E-01  4.348767E+00
        12   1  5.757763E-02  2.269883E-01 -6.547605E+01 -5.308634E-01  1.172132E-01  1.124275E+01
        12   2 -1.713224E-01 -1.532849E-01 -6.586840E+01  2.783514E-01  2.642385E-01  1.237224E+01
        12   3 -1.853282E+00 -3.426143E+00 -2.461767E+02 -5.819496E-01  1.168849E-02  5.739495E+00
        12   4 -2.181191E+00 -3.850525E+00 -2.470914E+02  2.272506E-01  5.423262E-01  6.645513E+00
        12   5  4.735280E-01  8.939993E-01 -5.929673E+01  1.020560E-02 -9.568349E-03  1.290823E+01
        12   6  6.003681E-01  1.091662E+00 -5.912317E+01  8.545635E-02 -8.046025E-02  1.405689E+01
        12   7  5.163918E-01  7.965286E-01 -2.222283E+02  8.602938E-02 -4.443492E-01  4.348767E+00
        12   8  7.519287E-01  1.070644E+00 -2.217952E+02  1.507722E-01 -7.269896E-01  4.686111E+00
        13   1  2.606071E-01  1.957988E-01  2.039488E+02  2.456407E-01 -6.991451E-02  5.850830E+00
        13   2  1.543505E-01 -1.060994E-02  2.036696E+02 -5.739714E-02 -2.293314E-01  5.177668E+00
        13   3  6.570919E-01  1.206150E+00  5.519978E+01  1.738708E-01  8.812774E-02  1.304185E+01
        13   4  5.910900E-01  1.079747E+00  5.508618E+01 -1.291710E-01  4.456403E-02  1.192966E+01
        13   5 -2.271181E-01 -3.961679E-01  1.793231E+02 -9.331181E-02 -4.048533E-01  5.154469E+00
        13   6 -1.279024E-01 -2.072122E-01  1.794758E+02 -1.318301E-02 -3.273613E-01  4.657075E+00
        13   7 -2.317425E-01 -3.911689E-01  4.784647E+01 -3.389450E-02 -2.550451E-03  1.363863E+01
        13   8 -1.630138E-01 -2.595838E-01  4.792828E+01  7.018339E-03  1.736540E-02  1.254982E+01
        14   1  1.543505E-01 -1.060994E-02  2.036696E+02  5.739714E-02  2.293314E-01  5.177668E+00
        14   2  2.606071E-01  1.957988E-01  2.039488E+02 -2.456407E-01  6.991451E-02  5.850830E+00
        14   3  5.910900E-01  1.079747E+00  5.508618E+01  1.291710E-01 -4.456403E-02  1.192966E+01
        14   4  6.570919E-01  1.206150E+00  5.519978E+01 -1.738708E-01 -8.812774E-02  1.304185E+01
        14   5 -1.279024E-01 -2.072122E-01  1.794758E+02  1.318301E-02  3.273613E-01  4.657075E+00
        14   6 -2.271181E-01 -3.961679E-01  1.793231E+02  9.331181E-02  4.048533E-01  5.154469E+00
        14   7 -1.630138E-01 -2.595838E-01  4.792828E+01 -7.018339E-03 -1.736540E-02  1.254982E+01
        14   8 -2.317425E-01 -3.911689E-01  4.784647E+01  3.389450E-02  2.550451E-03  1.363863E+01
        15   1 -6.570919E-01 -1.206150E+00 -5.519978E+01  1.738708E-01 -8.812774E-02  1.304185E+01
        15   2 -5.910900E-01 -1.079747E+00 -5.508618E+01 -1.291710E-01 -4.456403E-02  1.192966E+01
        15   3 -2.606071E-01 -1.957988E-01 -2.039488E+02  2.456407E-01  6.991451E-02  5.850830E+00
        15   4 -1.543505E-01  1.060994E-02 -2.036696E+02 -5.739714E-02  2.293314E-01  5.177668E+00
        15   5  2.317425E-01  3.911689E-01 -4.784647E+01 -3.389450E-02  2.550451E-03  1.363863E+01
        15   6  1.630138E-01  2.595838E-01 -4.792828E+01  7.018339E-03 -1.736540E-02  1.254982E+01
        15   7  2.271181E-01  3.961679E-01 -1.793231E+02 -9.331181E-02  4.048533E-01  5.154469E+00
        15   8  1.279024E-01  2.072122E-01 -1.794758E+02 -1.318301E-02  3.273613E-01  4.657075E+00
        16   1 -5.910900E-01 -1.079747E+00 -5.508618E+01  1.291710E-01  4.456403E-02  1.192966E+01
        16   2 -6.570919E-01 -1.206150E+00 -5.519978E+01 -1.738708E-01  8.812774E-02  1.304185E+01
        16   3 -1.543505E-01  1.060994E-02 -2.036696E+02  5.739714E-02 -2.293314E-01  5.177668E+00
        16   4 -2.606071E-01 -1.957988E-01 -2.039488E+02 -2.456407E-01 -6.991451E-02  5.850830E+00
        16   5  1.630138E-01  2.595838E-01 -4.792828E+01 -7.018339E-03  1.736540E-02  1.254982E+01
        16   6  2.317425E-01  3.911689E-01 -4.784647E+01  3.389450E-02 -2.550451E-03  1.363863E+01
        16   7  1.279024E-01  2.072122E-01 -1.794758E+02  1.318301E-02 -3.273613E-01  4.657075E+00
        16   8  2.271181E-01  3.961679E-01 -1.793231E+02  9.331181E-02 -4.048533E-01  5.154469E+00
        17   1  2.311304E-01  4.220353E-01  1.613887E+02  3.096091E-02 -2.736082E-01  5.393498E+00
        17   2  1.490536E-01  2.705792E-01  1.612863E+02  8.423802E-02 -2.912279E-01  4.898180E+00
        17   3  1.169637E-01  1.944153E-01  4.333986E+01 -2.553767E-02  1.816664E-02  1.342415E+01
        17   4  3.485836E-02  3.963769E-02  4.325105E+01  2.774048E-02  2.267752E-02  1.228418E+01
        17   5 -2.597995E-01 -2.296569E-01  1.367492E+02 -1.037338E-02 -2.467718E-01  5.516267E+00
        17   6 -1.475712E-01 -1.661193E-01  1.368156E+02 -2.052132E-01 -3.207199E-01  4.852833E+00
        17   7 -1.928893E-01 -4.091751E-01  3.652388E+01  5.554121E-02  2.443069E-02  1.333696E+01
        17   8 -6.195387E-02 -1.991375E-01  3.664128E+01  7.057402E-03  1.384843E-02  1.229394E+01
        18   1  1.490536E-01  2.705792E-01  1.612863E+02 -8.423802E-02  2.912279E-01  4.898180E+00
        18   2  2.311304E-01  4.220353E-01  1.613887E+02 -3.096091E-02  2.736082E-01  5.393498E+00
        18   3  3.485836E-02  3.963769E-02  4.325105E+01 -2.774048E-02 -2.267752E-02  1.228418E+01
        18   4  1.169637E-01  1.944153E-01  4.333986E+01  2.553767E-02 -1.816664E-02  1.342415E+01
        18   5 -1.475712E-01 -1.661193E-01  1.368156E+02  2.052132E-01  3.207199E-01  4.852833E+00
        18   6 -2.597995E-01 -2.296569E-01  1.367492E+02  1.037338E-02  2.467718E-01  5.516267E+00
        18   7 -6.195387E-02 -1.991375E-01  3.664128E+01 -7.057402E-03 -1.384843E-02  1.229394E+01
        18   8 -1.928893E-01 -4.091751E-01  3.652388E+01 -5.554121E-02 -2.443069E-02  1.333696E+01
        19   1 -1.169637E-01 -1.944153E-01 -4.333986E+01 -2.553767E-02 -1.816664E-02  1.342415E+01
        19   2 -3.485836E-02 -3.963769E-02 -4.325105E+01  2.774048E-02 -2.267752E-02  1.228418E+01
        19   3 -2.311304E-01 -4.220353E-01 -1.613887E+02  3.096091E-02  2.736082E-01  5.393498E+00
        19   4 -1.490536E-01 -2.705792E-01 -1.612863E+02  8.423802E-02  2.912279E-01  4.898180E+00
        19   5  1.928893E-01  4.091751E-01 -3.652388E+01  5.554121E-02 -2.443069E-02  1.333696E+01
        19   6  6.195387E-02  1.991375E-01 -3.664128E+01  7.057402E-03 -1.384843E-02  1.229394E+01
        19   7  2.597995E-01  2.296569E-01 -1.367492E+02 -1.037338E-02  2.467718E-01  5.516267E+00
        19   8  1.475712E-01  1.661193E-01 -1.368156E+02 -2.052132E-01  3.207199E-01  4.852833E+00
        20   1 -3.485836E-02 -3.963769E-02 -4.325105E+01 -2.774048E-02  2.267752E-02  1.228418E+01
        20   2 -1.169637E-01 -1.944153E-01 -4.333986E+01  2.553767E-02  1.816664E-02  1.342415E+01
        20   3 -1.490536E-01 -2.705792E-01 -1.612863E+02 -8.423802E-02 -2.912279E-01  4.898180E+00
        20   4 -2.311304E-01 -4.220353E-01 -1.613887E+02 -3.096091E-02 -2.736082E-01  5.393498E+00
        20   5  6.195387E-02  1.991375E-01 -3.664128E+01 -7.057402E-03  1.384843E-02  1.229394E+01
        20   6  1.928893E-01  4.091751E-01 -3.652388E+01 -5.554121E-02  2.443069E-02  1.333696E+01
        20   7  1.475712E-01  1.661193E-01 -1.368156E+02  2.052132E-01 -3.207199E-01  4.852833E+00
        20   8  2.597995E-01  2.296569E-01 -1.367492E+02  1.037338E-02 -2.467718E-01  5.516267E+00
        21   1  2.800939E-01  4.263953E-01  1.188059E+02  1.215991E-01 -4.222956E-01  5.165416E+00