    1C
    1UBalken                                                            
    1UUSER                                                              
    1UDATE              24.november.2019                                
    1UTIME              19:36:04                                        
    1UHOST                                                              
    1UPGM               CalculiX                                        
    1UVERSION           Version 2.16                             
    1UCOMPILETIME       So 24. Nov 18:30:58 CET 2019                    
    1UDIR                                                               
    1UDBN                                                               
    1UMAT    1STEEL                                                     
    2C                            68                                     1
 -1        12-2.50000E+01 2.50000E+01 0.00000E+00
 -1        13-2.50000E+01-2.50000E+01 0.00000E+00
 -1        14 2.50000E+01-2.50000E+01 0.00000E+00
 -1        15 2.50000E+01 2.50000E+01 0.00000E+00
 -1        16-2.50000E+01 0.00000E+00 0.00000E+00
 -1        17 0.00000E+00-2.50000E+01 0.00000E+00
 -1        18 2.50000E+01 0.00000E+00 0.00000E+00
 -1        19 0.00000E+00 2.50000E+01 0.00000E+00
 -1        20-2.50000E+01 2.50000E+01 1.00000E+02
 -1        21-2.50000E+01-2.50000E+01 1.00000E+02
 -1        22 2.50000E+01-2.50000E+01 1.00000E+02
 -1        23 2.50000E+01 2.50000E+01 1.00000E+02
 -1        28-2.50000E+01 2.50000E+01 2.00000E+02
 -1        29-2.50000E+01-2.50000E+01 2.00000E+02
 -1        30 2.50000E+01-2.50000E+01 2.00000E+02
 -1        31 2.50000E+01 2.50000E+01 2.00000E+02
 -1        32-2.50000E+01 0.00000E+00 2.00000E+02
 -1        33 0.00000E+00-2.50000E+01 2.00000E+02
 -1        34 2.50000E+01 0.00000E+00 2.00000E+02
 -1        35 0.00000E+00 2.50000E+01 2.00000E+02
 -1        36-2.50000E+01 2.50000E+01 3.00000E+02
 -1        37-2.50000E+01-2.50000E+01 3.00000E+02
 -1        38 2.50000E+01-2.50000E+01 3.00000E+02
 -1        39 2.50000E+01 2.50000E+01 3.00000E+02
 -1        44-2.50000E+01 2.50000E+01 4.00000E+02
 -1        45-2.50000E+01-2.50000E+01 4.00000E+02
 -1        46 2.50000E+01-2.50000E+01 4.00000E+02
 -1        47 2.50000E+01 2.50000E+01 4.00000E+02
 -1        48-2.50000E+01 0.00000E+00 4.00000E+02
 -1        49 0.00000E+00-2.50000E+01 4.00000E+02
 -1        50 2.50000E+01 0.00000E+00 4.00000E+02
 -1        51 0.00000E+00 2.50000E+01 4.00000E+02
 -1        52-2.50000E+01 2.50000E+01 5.00000E+02
 -1        53-2.50000E+01-2.50000E+01 5.00000E+02
 -1        54 2.50000E+01-2.50000E+01 5.00000E+02
 -1        55 2.50000E+01 2.50000E+01 5.00000E+02
 -1        60-2.50000E+01 2.50000E+01 6.00000E+02
 -1        61-2.50000E+01-2.50000E+01 6.00000E+02
 -1        62 2.50000E+01-2.50000E+01 6.00000E+02
 -1        63 2.50000E+01 2.50000E+01 6.00000E+02
 -1        64-2.50000E+01 0.00000E+00 6.00000E+02
 -1        65 0.00000E+00-2.50000E+01 6.00000E+02
 -1        66 2.50000E+01 0.00000E+00 6.00000E+02
 -1        67 0.00000E+00 2.50000E+01 6.00000E+02
 -1        68-2.50000E+01 2.50000E+01 7.00000E+02
 -1        69-2.50000E+01-2.50000E+01 7.00000E+02
 -1        70 2.50000E+01-2.50000E+01 7.00000E+02
 -1        71 2.50000E+01 2.50000E+01 7.00000E+02
 -1        76-2.50000E+01 2.50000E+01 8.00000E+02
 -1        77-2.50000E+01-2.50000E+01 8.00000E+02
 -1        78 2.50000E+01-2.50000E+01 8.00000E+02
 -1        79 2.50000E+01 2.50000E+01 8.00000E+02
 -1        80-2.50000E+01 0.00000E+00 8.00000E+02
 -1        81 0.00000E+00-2.50000E+01 8.00000E+02
 -1        82 2.50000E+01 0.00000E+00 8.00000E+02
 -1        83 0.00000E+00 2.50000E+01 8.00000E+02
 -1        84-2.50000E+01 2.50000E+01 9.00000E+02
 -1        85-2.50000E+01-2.50000E+01 9.00000E+02
 -1        86 2.50000E+01-2.50000E+01 9.00000E+02
 -1        87 2.50000E+01 2.50000E+01 9.00000E+02
 -1        92-2.50000E+01 2.50000E+01 1.00000E+03
 -1        93-2.50000E+01-2.50000E+01 1.00000E+03
 -1        94 2.50000E+01-2.50000E+01 1.00000E+03
 -1        95 2.50000E+01 2.50000E+01 1.00000E+03
 -1        96-2.50000E+01 0.00000E+00 1.00000E+03
 -1        97 0.00000E+00-2.50000E+01 1.00000E+03
 -1        98 2.50000E+01 0.00000E+00 1.00000E+03
 -1        99 0.00000E+00 2.50000E+01 1.00000E+03
 -3
    3C                             5                                     1
 -1         1    4    0    1
 -2        12        28        29        13        15        31        30        14        20        32
 -2        21        16        19        35        33        17        23        34        22        18
 -1         2    4    0    1
 -2        28        44        45        29        31        47        46        30        36        48
 -2        37        32        35        51        49        33        39        50        38        34
 -1         3    4    0    1
 -2        44        60        61        45        47        63        62        46        52        64
 -2        53        48        51        67        65        49        55        66        54        50
 -1         4    4    0    1
 -2        60        76        77        61        63        79        78        62        68        80
 -2        69        64        67        83        81        65        71        82        70        66
 -1         5    4    0    1
 -2        76        92        93        77        79        95        94        78        84        96
 -2        85        80        83        99        97        81        87        98        86        82
 -3
    1PSTEP                         1           1           1          
  100CL  101 1.000000000          68                     0    1           1
 -4  DISP        4    1
 -5  D1          1    2    1    0
 -5  D2          1    2    2    0
 -5  D3          1    2    3    0
 -5  ALL         1    2    0    0    1ALL
 -1        12 1.23486E-03 7.35896E-14-5.27009E-15
 -1        13-1.23486E-03-8.12328E-14 5.27009E-15
 -1        14 1.23486E-03 8.33246E-14-5.27009E-15
 -1        15-1.23486E-03-7.56815E-14 5.27009E-15
 -1        16 4.24140E-16-3.82160E-15 0.00000E+00
 -1        17-3.82160E-15 1.04593E-15 0.00000E+00
 -1        18-4.24140E-16 3.82160E-15 0.00000E+00
 -1        19 3.82160E-15-1.04593E-15 0.00000E+00
 -1        20 1.14520E-03-3.02886E-02 1.47710E-02
 -1        21-1.14520E-03-3.02886E-02-1.47710E-02
 -1        22 1.14520E-03-3.02886E-02-1.47710E-02
 -1        23-1.14520E-03-3.02886E-02 1.47710E-02
 -1        28 1.03936E-03-1.19129E-01 2.92766E-02
 -1        29-1.03936E-03-1.19129E-01-2.92766E-02
 -1        30 1.03936E-03-1.19129E-01-2.92766E-02
 -1        31-1.03936E-03-1.19129E-01 2.92766E-02
 -1        32-7.29801E-12-1.18440E-01-1.75901E-12
 -1        33-6.91888E-12-1.19814E-01-2.92743E-02
 -1        34-7.29887E-12-1.18440E-01 1.75453E-12
 -1        35-7.51650E-12-1.19814E-01 2.92743E-02
 -1        36 9.07674E-04-2.64220E-01 4.25940E-02
 -1        37-9.07674E-04-2.64220E-01-4.25940E-02
 -1        38 9.07674E-04-2.64220E-01-4.25940E-02
 -1        39-9.07674E-04-2.64220E-01 4.25940E-02
 -1        44 7.71841E-04-4.58366E-01 5.38089E-02
 -1        45-7.71841E-04-4.58366E-01-5.38089E-02
 -1        46 7.71841E-04-4.58366E-01-5.38089E-02
 -1        47-7.71841E-04-4.58366E-01 5.38089E-02
 -1        48-2.72400E-11-4.58025E-01-3.10832E-12
 -1        49-2.66105E-11-4.58709E-01-5.37952E-02
 -1        50-2.72412E-11-4.58025E-01 3.09951E-12
 -1        51-2.78031E-11-4.58709E-01 5.37952E-02
 -1        52 6.42855E-04-6.93471E-01 6.31549E-02
 -1        53-6.42855E-04-6.93471E-01-6.31549E-02
 -1        54 6.42855E-04-6.93471E-01-6.31549E-02
 -1        55-6.42855E-04-6.93471E-01 6.31549E-02
 -1        60 5.20173E-04-9.62737E-01 7.08871E-02
 -1        61-5.20174E-04-9.62737E-01-7.08871E-02
 -1        62 5.20173E-04-9.62737E-01-7.08871E-02
 -1        63-5.20174E-04-9.62737E-01 7.08871E-02
 -1        64-5.57099E-11-9.62466E-01-3.92559E-12
 -1        65-5.48412E-11-9.63006E-01-7.08793E-02
 -1        66-5.57100E-11-9.62466E-01 3.91336E-12
 -1        67-5.65309E-11-9.63006E-01 7.08793E-02
 -1        68 3.85056E-04-1.25961E+00 7.69348E-02
 -1        69-3.85056E-04-1.25961E+00-7.69348E-02
 -1        70 3.85056E-04-1.25961E+00-7.69348E-02
 -1        71-3.85056E-04-1.25961E+00 7.69348E-02
 -1        76 2.69994E-04-1.57718E+00 8.12388E-02
 -1        77-2.69995E-04-1.57718E+00-8.12388E-02
 -1        78 2.69994E-04-1.57718E+00-8.12388E-02
 -1        79-2.69995E-04-1.57718E+00 8.12388E-02
 -1        80-8.89317E-11-1.57705E+00-4.29957E-12
 -1        81-8.78699E-11-1.57731E+00-8.12297E-02
 -1        82-8.89327E-11-1.57705E+00 4.28349E-12
 -1        83-8.99841E-11-1.57731E+00 8.12297E-02
 -1        84 1.18639E-04-1.90849E+00 8.38087E-02
 -1        85-1.18639E-04-1.90849E+00-8.38087E-02
 -1        86 1.18639E-04-1.90849E+00-8.38087E-02
 -1        87-1.18639E-04-1.90849E+00 8.38087E-02
 -1        92 6.33957E-06-2.24667E+00 8.46752E-02
 -1        93-6.33981E-06-2.24667E+00-8.46752E-02
 -1        94 6.33957E-06-2.24667E+00-8.46752E-02
 -1        95-6.33982E-06-2.24667E+00 8.46752E-02
 -1        96-1.23658E-10-2.24666E+00-4.36898E-12
 -1        97-1.22518E-10-2.24666E+00-8.46640E-02
 -1        98-1.23659E-10-2.24666E+00 4.34880E-12
 -1        99-1.24799E-10-2.24666E+00 8.46640E-02
 -3
    1PSTEP                         2           1           1          
  100CL  101 1.000000000          68                     0    1           1
 -4  STRESS      6    1
 -5  SXX         1    4    1    1
 -5  SYY         1    4    2    2
 -5  SZZ         1    4    3    3
 -5  SXY         1    4    1    2
 -5  SYZ         1    4    2    3
 -5  SZX         1    4    3    1
 -1        12 1.34390E+00 4.01523E+00 1.20402E+01 1.33566E+00-1.77424E-01-2.19597E-02
 -1        13-1.34390E+00-4.01523E+00-1.20402E+01 1.33566E+00-1.77424E-01 2.19597E-02
 -1        14-1.34390E+00-4.01523E+00-1.20402E+01-1.33566E+00-1.77424E-01-2.19597E-02
 -1        15 1.34390E+00 4.01523E+00 1.20402E+01-1.33566E+00-1.77424E-01 2.19597E-02
 -1        16-2.49384E-10-8.35372E-11-7.48589E-10 1.33566E+00-1.77424E-01-1.45167E-11
 -1        17-1.34390E+00-4.01523E+00-1.20402E+01 8.25052E-11-1.77424E-01 2.80735E-11
 -1        18 2.49548E-10 8.40492E-11 7.46928E-10-1.33566E+00-1.77424E-01-1.36713E-11
 -1        19 1.34390E+00 4.01523E+00 1.20402E+01-8.31705E-11-1.77424E-01-5.62614E-11
 -1        20 4.93353E-01 1.47167E+00 1.08362E+01 4.92393E-01-1.77059E-01-2.87938E-02
 -1        21-4.93353E-01-1.47167E+00-1.08362E+01 4.92393E-01-1.77059E-01 2.87938E-02
 -1        22-4.93353E-01-1.47167E+00-1.08362E+01-4.92393E-01-1.77059E-01-2.87938E-02
 -1        23 4.93353E-01 1.47167E+00 1.08362E+01-4.92393E-01-1.77059E-01 2.87938E-02
 -1        28-3.50617E-01-1.06963E+00 9.63320E+00-3.53039E-01-1.76541E-01-3.77363E-02
 -1        29 3.50617E-01 1.06963E+00-9.63320E+00-3.53039E-01-1.76541E-01 3.77363E-02
 -1        30 3.50617E-01 1.06963E+00-9.63320E+00 3.53039E-01-1.76541E-01-3.77363E-02
 -1        31-3.50617E-01-1.06963E+00 9.63320E+00 3.53039E-01-1.76541E-01 3.77363E-02
 -1        32 6.65622E-11 2.26020E-11-5.56021E-10-3.53039E-01-1.76541E-01-1.38835E-11
 -1        33 3.50617E-01 1.06963E+00-9.63320E+00-2.28654E-11-1.76541E-01 2.75221E-11
 -1        34-6.59553E-11-2.15424E-11 5.54470E-10 3.53039E-01-1.76541E-01-1.38802E-11
 -1        35-3.50617E-01-1.06963E+00 9.63320E+00 2.11501E-11-1.76541E-01-5.52857E-11
 -1        36-1.27818E-01-3.91064E-01 8.43017E+00-1.30304E-01-1.74586E-01-5.31883E-02
 -1        37 1.27818E-01 3.91064E-01-8.43017E+00-1.30304E-01-1.74586E-01 5.31883E-02
 -1        38 1.27818E-01 3.91064E-01-8.43017E+00 1.30304E-01-1.74586E-01-5.31883E-02
 -1        39-1.27818E-01-3.91064E-01 8.43017E+00 1.30304E-01-1.74586E-01 5.31883E-02
 -1        44 9.29987E-02 2.86088E-01 7.22441E+00 9.27143E-02-1.72955E-01-6.57551E-02
 -1        45-9.29987E-02-2.86088E-01-7.22441E+00 9.27143E-02-1.72955E-01 6.57551E-02
 -1        46-9.29987E-02-2.86088E-01-7.22441E+00-9.27143E-02-1.72955E-01-6.57551E-02
 -1        47 9.29987E-02 2.86088E-01 7.22441E+00-9.27143E-02-1.72955E-01 6.57551E-02
 -1        48-1.78363E-11-7.55643E-12-3.69650E-10 9.27143E-02-1.72955E-01-1.22563E-11
 -1        49-9.29987E-02-2.86088E-01-7.22441E+00 5.41086E-12-1.72955E-01 2.58825E-11
 -1        50 1.73270E-11 6.52597E-12 3.68114E-10-9.27143E-02-1.72955E-01-1.24534E-11
 -1        51 9.29987E-02 2.86088E-01 7.22441E+00-5.67165E-12-1.72955E-01-5.05922E-11
 -1        52 3.36037E-02 1.03153E-01 6.01865E+00 3.50068E-02-1.74051E-01-5.69917E-02
 -1        53-3.36037E-02-1.03153E-01-6.01865E+00 3.50068E-02-1.74051E-01 5.69917E-02
 -1        54-3.36037E-02-1.03153E-01-6.01865E+00-3.50068E-02-1.74051E-01-5.69917E-02
 -1        55 3.36037E-02 1.03153E-01 6.01865E+00-3.50068E-02-1.74051E-01 5.69917E-02
 -1        60-2.30181E-02-7.81912E-02 4.81541E+00-2.32920E-02-1.74745E-01-5.24531E-02
 -1        61 2.30181E-02 7.81912E-02-4.81541E+00-2.32920E-02-1.74745E-01 5.24531E-02
 -1        62 2.30181E-02 7.81912E-02-4.81541E+00 2.32920E-02-1.74745E-01-5.24531E-02
 -1        63-2.30181E-02-7.81912E-02 4.81541E+00 2.32920E-02-1.74745E-01 5.24531E-02
 -1        64 4.85285E-12 3.87846E-12-2.07447E-10-2.32920E-02-1.74745E-01-1.14533E-11
 -1        65 2.30181E-02 7.81912E-02-4.81541E+00-5.93868E-13-1.74745E-01 2.11971E-11
 -1        66-5.20356E-12-7.39222E-12 2.05152E-10 2.32920E-02-1.74745E-01-1.13171E-11
 -1        67-2.30181E-02-7.81912E-02 4.81541E+00 1.46349E-12-1.74745E-01-4.39675E-11
 -1        68-1.13205E-02-2.48569E-02 3.61218E+00-1.09862E-02-1.74314E-01-5.18582E-02
 -1        69 1.13205E-02 2.48569E-02-3.61218E+00-1.09862E-02-1.74314E-01 5.18582E-02
 -1        70 1.13205E-02 2.48569E-02-3.61218E+00 1.09862E-02-1.74314E-01-5.18582E-02
 -1        71-1.13205E-02-2.48569E-02 3.61218E+00 1.09862E-02-1.74314E-01 5.18582E-02
 -1        76 2.79525E-03 2.90104E-02 2.40830E+00 3.77031E-04-1.74823E-01-5.66793E-02
 -1        77-2.79525E-03-2.90104E-02-2.40830E+00 3.77031E-04-1.74823E-01 5.66793E-02
 -1        78-2.79525E-03-2.90104E-02-2.40830E+00-3.77031E-04-1.74823E-01-5.66793E-02
 -1        79 2.79525E-03 2.90104E-02 2.40830E+00-3.77031E-04-1.74823E-01 5.66793E-02
 -1        80 1.49685E-12 2.38208E-12-4.92882E-11 3.77031E-04-1.74823E-01-8.34879E-12
 -1        81-2.79525E-03-2.90104E-02-2.40830E+00 2.67675E-12-1.74823E-01 1.14525E-11
 -1        82 2.31016E-12-1.41396E-12 5.00666E-11-3.77031E-04-1.74823E-01-8.14107E-12
 -1        83 2.79525E-03 2.90104E-02 2.40830E+00 2.50346E-12-1.74823E-01-2.79423E-11
 -1        84 9.74885E-03-3.88305E-03 1.20443E+00 1.04526E-02-1.75184E-01-5.73962E-02
 -1        85-9.74885E-03 3.88305E-03-1.20443E+00 1.04526E-02-1.75184E-01 5.73962E-02
 -1        86-9.74885E-03 3.88305E-03-1.20443E+00-1.04526E-02-1.75184E-01-5.73962E-02
 -1        87 9.74885E-03-3.88305E-03 1.20443E+00-1.04526E-02-1.75184E-01 5.73962E-02
 -1        92 6.91631E-03-3.97417E-02 4.57660E-04 2.39386E-02-1.74835E-01-4.92488E-02
 -1        93-6.91631E-03 3.97417E-02-4.57660E-04 2.39386E-02-1.74835E-01 4.92488E-02
 -1        94-6.91631E-03 3.97417E-02-4.57660E-04-2.39386E-02-1.74835E-01-4.92488E-02
 -1        95 6.91631E-03-3.97417E-02 4.57660E-04-2.39386E-02-1.74835E-01 4.92488E-02
 -1        96-3.02671E-12-4.76432E-12-9.82399E-13 2.39386E-02-1.74835E-01-2.32778E-12
 -1        97-6.91631E-03 3.97417E-02-4.57660E-04 5.16300E-12-1.74835E-01 3.39393E-12
 -1        98-2.92351E-12 3.10512E-13-3.86775E-12-2.39386E-02-1.74835E-01-3.18751E-12
 -1        99 6.91631E-03-3.97417E-02 4.57660E-04 5.68560E-12-1.74835E-01-8.90922E-12
 -3
    1PSTEP                         3           1           2          
    1PGM                1.000000E+00                                  
    1PGK                4.162203E+04                                  
    1PHID                         -1                                  
    1PSUBC                         0                                  
    1PMODE                         1                                  
  100CL  102 32.46996095          68                     2    2MODAL      1
 -4  DISP        4    1
 -5  D1          1    2    1    0
 -5  D2          1    2    2    0
 -5  D3          1    2    3    0
 -5  ALL         1    2    0    0    1ALL
 -1        12 2.69860E-03 1.91485E-02-5.64518E-14
 -1        13-2.69860E-03-1.91485E-02 5.64518E-14
 -1        14 2.69860E-03 1.91485E-02-5.64518E-14
 -1        15-2.69860E-03-1.91485E-02 5.64518E-14
 -1        16-1.96024E-14-4.64594E-14 0.00000E+00
 -1        17-4.64594E-14-1.28630E-14 0.00000E+00
 -1        18 1.96024E-14 4.64594E-14 0.00000E+00
 -1        19 4.64594E-14 1.28630E-14 0.00000E+00
 -1        20-4.67000E-01-4.90008E-02-1.93588E-01
 -1        21-4.71835E-01-8.33094E-02-2.57104E-01
 -1        22-4.67000E-01-4.90008E-02 1.93588E-01
 -1        23-4.71835E-01-8.33094E-02 2.57104E-01
 -1        28-1.80997E+00-2.40732E-01-3.75135E-01
 -1        29-1.81409E+00-2.70007E-01-4.98217E-01
 -1        30-1.80997E+00-2.40732E-01 3.75135E-01
 -1        31-1.81409E+00-2.70007E-01 4.98217E-01
 -1        32-1.82197E+00-2.53962E-01-4.36574E-01
 -1        33-1.80204E+00-2.56770E-01-6.15264E-02
 -1        34-1.82197E+00-2.53962E-01 4.36574E-01
 -1        35-1.80204E+00-2.56770E-01 6.15264E-02
 -1        36-3.95079E+00-5.44999E-01-5.32516E-01
 -1        37-3.95418E+00-5.69049E-01-7.07235E-01
 -1        38-3.95079E+00-5.44999E-01 5.32516E-01
 -1        39-3.95418E+00-5.69049E-01 7.07235E-01
 -1        44-6.74101E+00-9.41023E-01-6.54326E-01
 -1        45-6.74360E+00-9.59365E-01-8.69009E-01
 -1        46-6.74101E+00-9.41023E-01 6.54326E-01
 -1        47-6.74360E+00-9.59365E-01 8.69009E-01
 -1        48-6.74623E+00-9.49644E-01-7.61417E-01
 -1        49-6.73840E+00-9.50748E-01-1.07307E-01
 -1        50-6.74623E+00-9.49644E-01 7.61417E-01
 -1        51-6.73840E+00-9.50748E-01 1.07307E-01
 -1        52-1.00213E+01-1.40556E+00-7.45101E-01
 -1        53-1.00232E+01-1.41932E+00-9.89568E-01
 -1        54-1.00213E+01-1.40556E+00 7.45101E-01
 -1        55-1.00232E+01-1.41932E+00 9.89568E-01
 -1        60-1.36642E+01-1.92119E+00-8.10572E-01
 -1        61-1.36655E+01-1.93039E+00-1.07652E+00
 -1        62-1.36642E+01-1.92119E+00 8.10572E-01
 -1        63-1.36655E+01-1.93039E+00 1.07652E+00
 -1        64-1.36673E+01-1.92544E+00-9.43423E-01
 -1        65-1.36624E+01-1.92613E+00-1.32957E-01
 -1        66-1.36673E+01-1.92544E+00 9.43423E-01
 -1        67-1.36624E+01-1.92613E+00 1.32957E-01
 -1        68-1.75544E+01-2.47120E+00-8.52989E-01
 -1        69-1.75552E+01-2.47679E+00-1.13285E+00
 -1        70-1.75544E+01-2.47120E+00 8.52989E-01
 -1        71-1.75552E+01-2.47679E+00 1.13285E+00
 -1        76-2.15943E+01-3.04206E+00-8.75812E-01
 -1        77-2.15947E+01-3.04457E+00-1.16317E+00
 -1        78-2.15943E+01-3.04206E+00 8.75812E-01
 -1        79-2.15947E+01-3.04457E+00 1.16317E+00
 -1        80-2.15950E+01-3.04325E+00-1.01939E+00
 -1        81-2.15940E+01-3.04339E+00-1.43662E-01
 -1        82-2.15950E+01-3.04325E+00 1.01939E+00
 -1        83-2.15940E+01-3.04339E+00 1.43662E-01
 -1        84-2.57002E+01-3.62157E+00-8.84507E-01
 -1        85-2.57003E+01-3.62232E+00-1.17471E+00
 -1        86-2.57002E+01-3.62157E+00 8.84507E-01
 -1        87-2.57003E+01-3.62232E+00 1.17471E+00
 -1        92-2.98264E+01-4.20348E+00-8.85885E-01
 -1        93-2.98264E+01-4.20341E+00-1.17654E+00
 -1        94-2.98264E+01-4.20348E+00 8.85885E-01
 -1        95-2.98264E+01-4.20341E+00 1.17654E+00
 -1        96-2.98264E+01-4.20346E+00-1.03122E+00
 -1        97-2.98265E+01-4.20343E+00-1.45330E-01
 -1        98-2.98264E+01-4.20346E+00 1.03122E+00
 -1        99-2.98265E+01-4.20343E+00 1.45330E-01
 -3
    1PSTEP                         4           1           2          
    1PGM                1.000000E+00                                  
    1PGK                4.162203E+04                                  
    1PHID                         -1                                  
    1PSUBC                         0                                  
    1PMODE                         2                                  
  100CL  103 32.46996096          68                     2    3MODAL      1
 -4  DISP        4    1
 -5  D1          1    2    1    0
 -5  D2          1    2    2    0
 -5  D3          1    2    3    0
 -5  ALL         1    2    0    0    1ALL
 -1        12 1.91485E-02-2.69860E-03-6.53665E-14
 -1        13-1.91485E-02 2.69860E-03 6.53665E-14
 -1        14 1.91485E-02-2.69860E-03-6.53665E-14
 -1        15-1.91485E-02 2.69860E-03 6.53665E-14
 -1        16-1.04083E-16-4.69208E-14 0.00000E+00
 -1        17-4.69208E-14 2.39123E-14 0.00000E+00
 -1        18 1.04083E-16 4.69208E-14 0.00000E+00
 -1        19 4.69208E-14-2.39123E-14 0.00000E+00
 -1        20 8.33094E-02-4.71835E-01 2.57104E-01
 -1        21 4.90008E-02-4.67000E-01-1.93588E-01
 -1        22 8.33094E-02-4.71835E-01-2.57104E-01
 -1        23 4.90008E-02-4.67000E-01 1.93588E-01
 -1        28 2.70007E-01-1.81409E+00 4.98217E-01
 -1        29 2.40732E-01-1.80997E+00-3.75135E-01
 -1        30 2.70007E-01-1.81409E+00-4.98217E-01
 -1        31 2.40732E-01-1.80997E+00 3.75135E-01
 -1        32 2.56770E-01-1.80204E+00 6.15264E-02
 -1        33 2.53962E-01-1.82197E+00-4.36574E-01
 -1        34 2.56770E-01-1.80204E+00-6.15264E-02
 -1        35 2.53962E-01-1.82197E+00 4.36574E-01
 -1        36 5.69049E-01-3.95418E+00 7.07235E-01
 -1        37 5.44999E-01-3.95079E+00-5.32516E-01
 -1        38 5.69049E-01-3.95418E+00-7.07235E-01
 -1        39 5.44999E-01-3.95079E+00 5.32516E-01
 -1        44 9.59365E-01-6.74360E+00 8.69009E-01
 -1        45 9.41023E-01-6.74101E+00-6.54326E-01
 -1        46 9.59365E-01-6.74360E+00-8.69009E-01
 -1        47 9.41023E-01-6.74101E+00 6.54326E-01
 -1        48 9.50748E-01-6.73840E+00 1.07307E-01
 -1        49 9.49644E-01-6.74623E+00-7.61417E-01
 -1        50 9.50748E-01-6.73840E+00-1.07307E-01
 -1        51 9.49644E-01-6.74623E+00 7.61417E-01
 -1        52 1.41932E+00-1.00232E+01 9.89568E-01
 -1        53 1.40556E+00-1.00213E+01-7.45101E-01
 -1        54 1.41932E+00-1.00232E+01-9.89568E-01
 -1        55 1.40556E+00-1.00213E+01 7.45101E-01
 -1        60 1.93039E+00-1.36655E+01 1.07652E+00
 -1        61 1.92119E+00-1.36642E+01-8.10572E-01
 -1        62 1.93039E+00-1.36655E+01-1.07652E+00
 -1        63 1.92119E+00-1.36642E+01 8.10572E-01
 -1        64 1.92613E+00-1.36624E+01 1.32957E-01
 -1        65 1.92544E+00-1.36673E+01-9.43423E-01
 -1        66 1.92613E+00-1.36624E+01-1.32957E-01
 -1        67 1.92544E+00-1.36673E+01 9.43423E-01
 -1        68 2.47679E+00-1.75552E+01 1.13285E+00
 -1        69 2.47120E+00-1.75544E+01-8.52989E-01
 -1        70 2.47679E+00-1.75552E+01-1.13285E+00
 -1        71 2.47120E+00-1.75544E+01 8.52989E-01
 -1        76 3.04457E+00-2.15947E+01 1.16317E+00
 -1        77 3.04206E+00-2.15943E+01-8.75812E-01
 -1        78 3.04457E+00-2.15947E+01-1.16317E+00
 -1        79 3.04206E+00-2.15943E+01 8.75812E-01
 -1        80 3.04339E+00-2.15940E+01 1.43662E-01
 -1        81 3.04325E+00-2.15950E+01-1.01939E+00
 -1        82 3.04339E+00-2.15940E+01-1.43662E-01
 -1        83 3.04325E+00-2.15950E+01 1.01939E+00
 -1        84 3.62232E+00-2.57003E+01 1.17471E+00
 -1        85 3.62157E+00-2.57002E+01-8.84507E-01
 -1        86 3.62232E+00-2.57003E+01-1.17471E+00
 -1        87 3.62157E+00-2.57002E+01 8.84507E-01
 -1        92 4.20341E+00-2.98264E+01 1.17654E+00
 -1        93 4.20348E+00-2.98264E+01-8.85885E-01
 -1        94 4.20341E+00-2.98264E+01-1.17654E+00
 -1        95 4.20348E+00-2.98264E+01 8.85885E-01
 -1        96 4.20343E+00-2.98265E+01 1.45330E-01
 -1        97 4.20346E+00-2.98264E+01-1.03122E+00
 -1        98 4.20343E+00-2.98265E+01-1.45330E-01
 -1        99 4.20346E+00-2.98264E+01 1.03122E+00
 -3
    1PSTEP                         5           1           2          
    1PGM                1.000000E+00                                  
    1PGK                1.583191E+06                                  
    1PHID                         -1                                  
    1PSUBC                         0                                  
    1PMODE                         3                                  
  100CL  104 200.2565729          68                     2    4MODAL      1
 -4  DISP        4    1
 -5  D1          1    2    1    0
 -5  D2          1    2    2    0
 -5  D3          1    2    3    0
 -5  ALL         1    2    0    0    1ALL
 -1        12-1.45551E-02-1.16033E-01 1.00968E-13
 -1        13 1.45551E-02 1.16033E-01-1.00968E-13
 -1        14-1.45551E-02-1.16033E-01 1.00968E-13
 -1        15 1.45551E-02 1.16033E-01-1.00968E-13
 -1        16 1.40443E-14 9.44522E-14 0.00000E+00
 -1        17 9.44522E-14 1.45439E-14 0.00000E+00
 -1        18-1.40443E-14-9.44522E-14 0.00000E+00
 -1        19-9.44522E-14-1.45439E-14 0.00000E+00
 -1        20 2.75454E+00 2.79639E-01 9.87269E-01
 -1        21 2.77133E+00 4.13522E-01 1.27048E+00
 -1        22 2.75454E+00 2.79639E-01-9.87269E-01
 -1        23 2.77133E+00 4.13522E-01-1.27048E+00
 -1        28 8.77611E+00 1.09191E+00 1.42992E+00
 -1        29 8.77839E+00 1.11011E+00 1.84011E+00
 -1        30 8.77611E+00 1.09191E+00-1.42992E+00
 -1        31 8.77839E+00 1.11011E+00-1.84011E+00
 -1        32 8.79804E+00 1.09837E+00 1.63088E+00
 -1        33 8.75621E+00 1.10362E+00 2.04577E-01
 -1        34 8.79804E+00 1.09837E+00-1.63088E+00
 -1        35 8.75621E+00 1.10362E+00-2.04577E-01
 -1        36 1.54657E+01 1.97428E+00 1.30358E+00
 -1        37 1.54570E+01 1.90465E+00 1.67753E+00
 -1        38 1.54657E+01 1.97428E+00-1.30358E+00
 -1        39 1.54570E+01 1.90465E+00-1.67753E+00
 -1        44 2.03352E+01 2.62275E+00 6.64164E-01
 -1        45 2.03169E+01 2.47661E+00 8.54687E-01
 -1        46 2.03352E+01 2.62275E+00-6.64164E-01
 -1        47 2.03169E+01 2.47661E+00-8.54687E-01
 -1        48 2.02834E+01 2.55508E+00 7.57315E-01
 -1        49 2.03690E+01 2.54433E+00 9.49970E-02
 -1        50 2.02834E+01 2.55508E+00-7.57315E-01
 -1        51 2.03690E+01 2.54433E+00-9.49970E-02
 -1        52 2.13125E+01 2.75756E+00-2.82473E-01
 -1        53 2.12911E+01 2.58661E+00-3.63504E-01
 -1        54 2.13125E+01 2.75756E+00 2.82473E-01
 -1        55 2.12911E+01 2.58661E+00 3.63504E-01
 -1        60 1.77180E+01 2.30619E+00-1.29402E+00
 -1        61 1.76967E+01 2.13619E+00-1.66523E+00
 -1        62 1.77180E+01 2.30619E+00 1.29402E+00
 -1        63 1.76967E+01 2.13619E+00 1.66523E+00
 -1        64 1.76640E+01 2.22664E+00-1.47850E+00
 -1        65 1.77508E+01 2.21576E+00-1.85461E-01
 -1        66 1.76640E+01 2.22664E+00 1.47850E+00
 -1        67 1.77508E+01 2.21576E+00 1.85461E-01
 -1        68 9.60435E+00 1.26755E+00-2.16627E+00
 -1        69 9.58835E+00 1.13996E+00-2.78769E+00
 -1        70 9.60435E+00 1.26755E+00 2.16627E+00
 -1        71 9.58835E+00 1.13996E+00 2.78769E+00
 -1        76-1.91528E+00-2.02320E-01-2.76528E+00
 -1        77-1.92495E+00-2.79394E-01-3.55853E+00
 -1        78-1.91528E+00-2.02320E-01 2.76528E+00
 -1        79-1.92495E+00-2.79394E-01 3.55853E+00
 -1        80-1.93849E+00-2.38550E-01-3.15985E+00
 -1        81-1.90171E+00-2.43163E-01-3.96369E-01
 -1        82-1.93849E+00-2.38550E-01 3.15985E+00
 -1        83-1.90171E+00-2.43163E-01 3.96369E-01
 -1        84-1.54075E+01-1.92148E+00-3.04109E+00
 -1        85-1.54103E+01-1.94428E+00-3.91346E+00
 -1        86-1.54075E+01-1.92148E+00 3.04109E+00
 -1        87-1.54103E+01-1.94428E+00 3.91346E+00
 -1        92-2.95804E+01-3.70904E+00-3.09480E+00
 -1        93-2.95808E+01-3.71210E+00-3.98258E+00
 -1        94-2.95804E+01-3.70904E+00 3.09480E+00
 -1        95-2.95808E+01-3.71210E+00 3.98258E+00
 -1        96-2.95776E+01-3.71100E+00-3.53784E+00
 -1        97-2.95841E+01-3.71019E+00-4.43783E-01
 -1        98-2.95776E+01-3.71100E+00 3.53784E+00
 -1        99-2.95841E+01-3.71019E+00 4.43783E-01
 -3
    1PSTEP                         6           1           2          
    1PGM                1.000000E+00                                  
    1PGK                1.583191E+06                                  
    1PHID                         -1                                  
    1PSUBC                         0                                  
    1PMODE                         4                                  
  100CL  105 200.2565729          68                     2    5MODAL      1
 -4  DISP        4    1
 -5  D1          1    2    1    0
 -5  D2          1    2    2    0
 -5  D3          1    2    3    0
 -5  ALL         1    2    0    0    1ALL
 -1        12-1.16033E-01 1.45551E-02 6.89448E-14
 -1        13 1.16033E-01-1.45551E-02-6.89448E-14
 -1        14-1.16033E-01 1.45551E-02 6.89448E-14
 -1        15 1.16033E-01-1.45551E-02-6.89448E-14
 -1        16-9.00668E-15 5.25968E-14 0.00000E+00
 -1        17 5.25968E-14-4.39093E-14 0.00000E+00
 -1        18 9.00668E-15-5.25968E-14 0.00000E+00
 -1        19-5.25968E-14 4.39093E-14 0.00000E+00
 -1        20-4.13522E-01 2.77133E+00-1.27048E+00
 -1        21-2.79639E-01 2.75454E+00 9.87269E-01
 -1        22-4.13522E-01 2.77133E+00 1.27048E+00
 -1        23-2.79639E-01 2.75454E+00-9.87269E-01
 -1        28-1.11011E+00 8.77839E+00-1.84011E+00
 -1        29-1.09191E+00 8.77611E+00 1.42992E+00
 -1        30-1.11011E+00 8.77839E+00 1.84011E+00
 -1        31-1.09191E+00 8.77611E+00-1.42992E+00
 -1        32-1.10362E+00 8.75621E+00-2.04577E-01
 -1        33-1.09837E+00 8.79804E+00 1.63088E+00
 -1        34-1.10362E+00 8.75621E+00 2.04577E-01
 -1        35-1.09837E+00 8.79804E+00-1.63088E+00
 -1        36-1.90465E+00 1.54570E+01-1.67753E+00
 -1        37-1.97428E+00 1.54657E+01 1.30358E+00
 -1        38-1.90465E+00 1.54570E+01 1.67753E+00
 -1        39-1.97428E+00 1.54657E+01-1.30358E+00
 -1        44-2.47661E+00 2.03169E+01-8.54687E-01
 -1        45-2.62275E+00 2.03352E+01 6.64164E-01
 -1        46-2.47661E+00 2.03169E+01 8.54687E-01
 -1        47-2.62275E+00 2.03352E+01-6.64164E-01
 -1        48-2.54433E+00 2.03690E+01-9.49970E-02
 -1        49-2.55508E+00 2.02834E+01 7.57315E-01
 -1        50-2.54433E+00 2.03690E+01 9.49970E-02
 -1        51-2.55508E+00 2.02834E+01-7.57315E-01