
 displacements (vx,vy,vz) for set NALL and time  0.1000000E+01

         1  1.592140E-01  0.000000E+00  0.000000E+00
         2  1.592140E-01  3.000000E-01  5.500000E+02
         3  1.592140E-01  0.000000E+00  0.000000E+00
         4  1.592140E-01  1.865436E-01  5.500000E+02
         5  1.592140E-01  0.000000E+00  0.000000E+00
         6  2.835508E-01  1.709737E-01  5.500000E+02
         7  2.835508E-01  0.000000E+00  0.000000E+00
         8  2.835508E-01  9.000000E-02  5.500000E+02
         9  2.835508E-01  0.000000E+00  0.000000E+00
        10  1.243368E-01  0.000000E+00  0.000000E+00
        11  1.243368E-01  2.000000E-01  5.500000E+02
        12  1.243368E-01  0.000000E+00  0.000000E+00
        13  1.243368E-01  1.711399E-01  5.500000E+02
        14  1.243369E-01  0.000000E+00  0.000000E+00

 temperatures for set NALL and time  0.1000000E+01

         1  0.000000E+00
         2  5.500000E+02
         3  0.000000E+00
         4  5.500000E+02
         5  0.000000E+00
         6  5.500000E+02
         7  0.000000E+00
         8  5.500000E+02
         9  0.000000E+00
        10  0.000000E+00
        11  5.500000E+02
        12  0.000000E+00
        13  5.500000E+02
        14  0.000000E+00
