
 displacements (vx,vy,vz) for set NALL and time  0.1000000E+01

         1 -2.323907E-02  0.000000E+00  0.000000E+00
         2  2.323907E-02  8.000000E-02  5.000000E+02
         3 -1.161953E-02  0.000000E+00  0.000000E+00
         4  1.161953E-02  1.000000E-01  5.000000E+02
         5 -1.161953E-02  0.000000E+00  0.000000E+00
         6 -1.161953E-02  0.000000E+00  0.000000E+00
         7  1.161953E-02  1.000000E-01  5.000000E+02
         8 -1.161953E-02  0.000000E+00  0.000000E+00

 temperatures for set NALL and time  0.1000000E+01

         1  0.000000E+00
         2  5.000000E+02
         3  0.000000E+00
         4  5.000000E+02
         5  0.000000E+00
         6  0.000000E+00
         7  5.000000E+02
         8  0.000000E+00
