
 displacements (vx,vy,vz) for set NALL and time  0.1000000E+01

         1  2.237031E-05  0.000000E+00  0.000000E+00
         2  2.237031E-05  5.443000E-01  8.190000E+02
         3  2.237031E-05  0.000000E+00  0.000000E+00
         4  2.237031E-05  4.000000E-01  8.190000E+02
         5  2.237031E-05  0.000000E+00  0.000000E+00

 temperatures for set NALL and time  0.1000000E+01

         1  0.000000E+00
         2  8.190000E+02
         3  0.000000E+00
         4  8.190000E+02
         5  0.000000E+00
