
 displacements (vx,vy,vz) for set NALL and time  0.1000000E+01

         1  5.000000E+03  3.032308E-01  5.925907E-01
         2  5.000000E+03  1.000000E-03  5.925907E-01
         3  5.000000E+03  0.000000E+00  0.000000E+00
         4  5.000000E+03  5.640861E-01  5.925907E-01
         5  5.000000E+03  4.059404E-01  5.925907E-01
         6  5.000000E+03  0.000000E+00  0.000000E+00
         7  5.000000E+03  3.691025E-01  5.925907E-01
         8  5.000000E+03  0.000000E+00  0.000000E+00
         9  5.000000E+03  3.443924E-01  5.925907E-01
        10  5.000000E+03  0.000000E+00  0.000000E+00
        11  5.000000E+03  3.273632E-01  5.925907E-01
        12  5.000000E+03  0.000000E+00  0.000000E+00
        13  5.000000E+03  3.160478E-01  5.925907E-01
        14  5.000000E+03  0.000000E+00  0.000000E+00
        15  5.000000E+03  3.091355E-01  5.925907E-01
        16  5.000000E+03  0.000000E+00  0.000000E+00
        17  5.000000E+03  3.054496E-01  5.925907E-01
        18  5.000000E+03  0.000000E+00  0.000000E+00
        19  5.000000E+03  3.038460E-01  5.925907E-01
        20  5.000000E+03  0.000000E+00  0.000000E+00
        21  5.000000E+03  3.033316E-01  5.925907E-01
        22  5.000000E+03  0.000000E+00  0.000000E+00
        23  5.000000E+03  0.000000E+00  0.000000E+00
        24  5.000000E+03  5.925907E-01  5.925907E-01
        25  5.000000E+03  0.000000E+00  0.000000E+00
        26  5.000000E+03  8.886208E-01  0.000000E+00
        27  5.000000E+03  0.000000E+00  5.000000E-01
        28  0.000000E+00  0.000000E+00  0.000000E+00
        29  5.000000E+03  0.000000E+00  0.000000E+00
        30  0.000000E+00  0.000000E+00  0.000000E+00
        31  5.000000E+03  0.000000E+00  0.000000E+00
