
 displacements (vx,vy,vz) for set NALL and time  0.1000000E+01

         1  5.000000E+04  0.000000E+00  0.000000E+00
         2  5.000000E+04  2.224444E+00  0.000000E+00
         3  5.000000E+04  0.000000E+00  5.000000E-01
         4  5.000000E+04  2.004141E+00  1.209585E+00
         5  5.000000E+04  0.000000E+00  0.000000E+00
         6  5.000000E+04  2.004141E+00  1.209585E+00
         7  5.000000E+04  0.000000E+00  0.000000E+00
         8  5.000000E+04  2.000014E+00  1.209585E+00
         9  5.000000E+04  0.000000E+00  0.000000E+00
        10  5.000000E+04  2.000000E+00  1.209585E+00
        11  5.000000E+04  0.000000E+00  0.000000E+00
