
 displacements (vx,vy,vz) for set NALL and time  0.1000000E+01

         1  5.000000E+04  1.930463E+00  0.000000E+00
         2  5.000000E+04  9.500000E-01  1.209585E+00
         3  5.000000E+04  0.000000E+00  7.033776E-01
         4  5.000000E+04  9.508582E-01  1.209585E+00
         5  5.000000E+04  0.000000E+00  0.000000E+00
         6  5.000000E+04  9.773720E-01  1.209585E+00
         7  5.000000E+04  0.000000E+00  0.000000E+00
         8  5.000000E+04  1.447037E+00  1.209585E+00
         9  5.000000E+04  0.000000E+00  0.000000E+00
        10  5.000000E+04  1.433577E+00  1.209585E+00
        11  5.000000E+04  0.000000E+00  0.000000E+00
        12  5.000000E+04  1.418863E+00  1.209585E+00
        13  5.000000E+04  0.000000E+00  0.000000E+00
        14  5.000000E+04  1.402561E+00  1.209585E+00
        15  5.000000E+04  0.000000E+00  0.000000E+00
        16  5.000000E+04  1.384158E+00  1.209585E+00
        17  5.000000E+04  0.000000E+00  0.000000E+00
        18  5.000000E+04  1.362792E+00  1.209585E+00
        19  5.000000E+04  0.000000E+00  0.000000E+00
        20  5.000000E+04  1.336790E+00  1.209585E+00
        21  5.000000E+04  0.000000E+00  0.000000E+00
        22  5.000000E+04  1.301878E+00  1.209585E+00
        23  5.000000E+04  0.000000E+00  0.000000E+00
        24  5.000000E+04  1.226922E+00  1.209585E+00
        25  5.000000E+04  0.000000E+00  0.000000E+00
        26  5.000000E+04  1.209585E+00  1.209585E+00
        27  5.000000E+04  0.000000E+00  9.400600E-01
        28  5.000000E+04  1.191300E+00  1.209601E+00
        29  5.000000E+04  0.000000E+00  0.000000E+00
        30  5.000000E+04  1.118200E+00  1.209601E+00
        31  5.000000E+04  0.000000E+00  0.000000E+00
        32  5.000000E+04  1.091730E+00  1.209601E+00
        33  5.000000E+04  0.000000E+00  0.000000E+00
        34  5.000000E+04  1.073899E+00  1.209601E+00
        35  5.000000E+04  0.000000E+00  0.000000E+00
        36  5.000000E+04  1.060522E+00  1.209601E+00
        37  5.000000E+04  0.000000E+00  0.000000E+00
        38  5.000000E+04  1.388386E+00  1.209601E+00
        39  5.000000E+04  0.000000E+00  0.000000E+00
        40  5.000000E+04  1.437081E+00  1.209601E+00
        41  5.000000E+04  0.000000E+00  0.000000E+00
        42  5.000000E+04  1.481139E+00  1.209601E+00
        43  5.000000E+04  0.000000E+00  0.000000E+00
        44  5.000000E+04  1.522248E+00  1.209601E+00
        45  5.000000E+04  0.000000E+00  0.000000E+00
        46  5.000000E+04  1.561283E+00  1.209601E+00
        47  5.000000E+04  0.000000E+00  0.000000E+00
        48  5.000000E+04  1.598764E+00  1.209601E+00
        49  5.000000E+04  0.000000E+00  0.000000E+00
        50  5.000000E+04  1.600000E+00  1.209601E+00
        51  5.000000E+04  0.000000E+00  0.000000E+00
        52  0.000000E+00  0.000000E+00  0.000000E+00
        53  5.000000E+04  0.000000E+00  0.000000E+00
        54  0.000000E+00  0.000000E+00  0.000000E+00
        55  5.000000E+04  0.000000E+00  0.000000E+00
