    1C
    1UUSER                                                              
    1UDATE              24.november.2019                                
    1UTIME              19:36:05                                        
    1UHOST                                                              
    1UPGM               CalculiX                                        
    1UVERSION           Version 2.16                             
    1UCOMPILETIME       So 24. Nov 18:30:58 CET 2019                    
    1UDIR                                                               
    1UDBN                                                               
    1UMAT    1EL                                                        
    1UMAT    2SI1                                                       
    2C                            16                                     1
 -1         1 1.00000E+00 1.00000E+00-1.49012E-08
 -1         2 1.00000E+00 0.00000E+00-1.49012E-08
 -1         3 1.00000E+00 0.00000E+00 1.00000E+00
 -1         4 1.00000E+00 1.00000E+00 1.00000E+00
 -1         5-7.45058E-09 1.00000E+00-1.49012E-08
 -1         6-7.45058E-09 0.00000E+00-1.49012E-08
 -1         7-7.45058E-09 0.00000E+00 1.00000E+00
 -1         8-7.45058E-09 1.00000E+00 1.00000E+00
 -1         9 5.00000E-01 6.41421E-01 1.00000E+00
 -1        10 6.41421E-01 5.00000E-01 1.00000E+00
 -1        11 6.41421E-01 5.00000E-01 1.20000E+00
 -1        12 5.00000E-01 6.41421E-01 1.20000E+00
 -1        13 3.58579E-01 5.00000E-01 1.00000E+00
 -1        14 5.00000E-01 3.58579E-01 1.00000E+00
 -1        15 5.00000E-01 3.58579E-01 1.20000E+00
 -1        16 3.58579E-01 5.00000E-01 1.20000E+00
 -3
    3C                             2                                     1
 -1         1    1    0    1
 -2         1         2         3         4         5         6         7         8
 -1         2    1    0    1
 -2         9        10        11        12        13        14        15        16
 -3
    1PSTEP                         1           1           1          
  100CL  101 1.000000000          16                     0    1           1
 -4  DISP        4    1
 -5  D1          1    2    1    0
 -5  D2          1    2    2    0
 -5  D3          1    2    3    0
 -5  ALL         1    2    0    0    1ALL
 -1         1 0.00000E+00 0.00000E+00 0.00000E+00
 -1         2 0.00000E+00 0.00000E+00 0.00000E+00
 -1         3-5.27660E-03 5.27660E-03 2.42789E-02
 -1         4-5.27660E-03-5.27660E-03 2.42789E-02
 -1         5 0.00000E+00 0.00000E+00 0.00000E+00
 -1         6 0.00000E+00 0.00000E+00 0.00000E+00
 -1         7 5.27660E-03 5.27660E-03 2.42789E-02
 -1         8 5.27660E-03-5.27660E-03 2.42789E-02
 -1         9 1.22746E-11-2.80780E-02 2.44242E-02
 -1        10-2.80780E-02-8.42525E-18 2.44242E-02
 -1        11 0.00000E+00 0.00000E+00 1.00000E-01
 -1        12 0.00000E+00 0.00000E+00 1.00000E-01
 -1        13 2.80780E-02 1.03318E-17 2.44242E-02
 -1        14 1.22746E-11 2.80780E-02 2.44242E-02
 -1        15 0.00000E+00 0.00000E+00 1.00000E-01
 -1        16 0.00000E+00 0.00000E+00 1.00000E-01
 -3
    1PSTEP                         2           1           1          
  100CL  101 1.000000000          16                     0    1           1
 -4  CONTACT     6    1
 -5  COPEN       1    4    1    1
 -5  CSLIP1      1    4    2    2
 -5  CSLIP2      1    4    3    3
 -5  CPRESS      1    4    1    2
 -5  CSHEAR1     1    4    2    3
 -5  CSHEAR2     1    4    3    1
 -1         1 0.00000E+00 0.00000E+00 0.00000E+00 0.00000E+00 0.00000E+00 0.00000E+00
 -1         2 0.00000E+00 0.00000E+00 0.00000E+00 0.00000E+00 0.00000E+00 0.00000E+00
 -1         3 0.00000E+00 0.00000E+00 0.00000E+00 0.00000E+00 0.00000E+00 0.00000E+00
 -1         4 0.00000E+00 0.00000E+00 0.00000E+00 0.00000E+00 0.00000E+00 0.00000E+00
 -1         5 0.00000E+00 0.00000E+00 0.00000E+00 0.00000E+00 0.00000E+00 0.00000E+00
 -1         6 0.00000E+00 0.00000E+00 0.00000E+00 0.00000E+00 0.00000E+00 0.00000E+00
 -1         7 0.00000E+00 0.00000E+00 0.00000E+00 0.00000E+00 0.00000E+00 0.00000E+00
 -1         8 0.00000E+00 0.00000E+00 0.00000E+00 0.00000E+00 0.00000E+00 0.00000E+00
 -1         9 1.45330E-04 4.06348E-10-2.12000E-02-1.45330E+05 4.06348E-07-2.12000E+01
 -1        10 1.45330E-04-2.12000E-02 5.67290E-18-1.45330E+05-2.12000E+01-4.35679E-15
 -1        11 0.00000E+00 0.00000E+00 0.00000E+00 0.00000E+00 0.00000E+00 0.00000E+00
 -1        12 0.00000E+00 0.00000E+00 0.00000E+00 0.00000E+00 0.00000E+00 0.00000E+00
 -1        13 1.45330E-04 2.12000E-02 3.10661E-17-1.45330E+05 2.12000E+01 2.05841E-14
 -1        14 1.45330E-04 4.06348E-10 2.12000E-02-1.45330E+05 4.06348E-07 2.12000E+01
 -1        15 0.00000E+00 0.00000E+00 0.00000E+00 0.00000E+00 0.00000E+00 0.00000E+00
 -1        16 0.00000E+00 0.00000E+00 0.00000E+00 0.00000E+00 0.00000E+00 0.00000E+00
 -3
    1PSTEP                         3           1           2          
  100CL  102 2.000000000          16                     0    2           1
 -4  DISP        4    1
 -5  D1          1    2    1    0
 -5  D2          1    2    2    0
 -5  D3          1    2    3    0
 -5  ALL         1    2    0    0    1ALL
 -1         1 0.00000E+00 0.00000E+00 0.00000E+00
 -1         2 0.00000E+00 0.00000E+00 0.00000E+00
 -1         3-1.46937E-39 7.34684E-40 2.93874E-39
 -1         4 5.51013E-40 0.00000E+00-2.93874E-39
 -1         5 0.00000E+00 0.00000E+00 0.00000E+00
 -1         6 0.00000E+00 0.00000E+00 0.00000E+00
 -1         7-1.46937E-39 4.22443E-39 2.93874E-39
 -1         8 1.10203E-39 3.30608E-39-1.46937E-39
 -1         9-2.52757E-17-8.54478E-15 1.00000E-01
 -1        10-8.55840E-15 8.03519E-18 1.00000E-01
 -1        11 0.00000E+00 0.00000E+00 1.00000E-01
 -1        12 0.00000E+00 0.00000E+00 1.00000E-01
 -1        13 8.52919E-15-6.38704E-18 1.00000E-01
 -1        14-7.96908E-18 8.54581E-15 1.00000E-01
 -1        15 0.00000E+00 0.00000E+00 1.00000E-01
 -1        16 0.00000E+00 0.00000E+00 1.00000E-01
 -3
    1PSTEP                         4           1           2          
  100CL  102 2.000000000          16                     0    2           1
 -4  CONTACT     6    1
 -5  COPEN       1    4    1    1
 -5  CSLIP1      1    4    2    2
 -5  CSLIP2      1    4    3    3
 -5  CPRESS      1    4    1    2
 -5  CSHEAR1     1    4    2    3
 -5  CSHEAR2     1    4    3    1
 -1         1 0.00000E+00 0.00000E+00 0.00000E+00 0.00000E+00 0.00000E+00 0.00000E+00
 -1         2 0.00000E+00 0.00000E+00 0.00000E+00 0.00000E+00 0.00000E+00 0.00000E+00
 -1         3 0.00000E+00 0.00000E+00 0.00000E+00 0.00000E+00 0.00000E+00 0.00000E+00
 -1         4 0.00000E+00 0.00000E+00 0.00000E+00 0.00000E+00 0.00000E+00 0.00000E+00
 -1         5 0.00000E+00 0.00000E+00 0.00000E+00 0.00000E+00 0.00000E+00 0.00000E+00
 -1         6 0.00000E+00 0.00000E+00 0.00000E+00 0.00000E+00 0.00000E+00 0.00000E+00
 -1         7 0.00000E+00 0.00000E+00 0.00000E+00 0.00000E+00 0.00000E+00 0.00000E+00
 -1         8 0.00000E+00 0.00000E+00 0.00000E+00 0.00000E+00 0.00000E+00 0.00000E+00
 -1         9 0.00000E+00 0.00000E+00 0.00000E+00 0.00000E+00 0.00000E+00 0.00000E+00
 -1        10 0.00000E+00 0.00000E+00 0.00000E+00 0.00000E+00 0.00000E+00 0.00000E+00
 -1        11 0.00000E+00 0.00000E+00 0.00000E+00 0.00000E+00 0.00000E+00 0.00000E+00
 -1        12 0.00000E+00 0.00000E+00 0.00000E+00 0.00000E+00 0.00000E+00 0.00000E+00
 -1        13 0.00000E+00 0.00000E+00 0.00000E+00 0.00000E+00 0.00000E+00 0.00000E+00
 -1        14 0.00000E+00 0.00000E+00 0.00000E+00 0.00000E+00 0.00000E+00 0.00000E+00
 -1        15 0.00000E+00 0.00000E+00 0.00000E+00 0.00000E+00 0.00000E+00 0.00000E+00
 -1        16 0.00000E+00 0.00000E+00 0.00000E+00 0.00000E+00 0.00000E+00 0.00000E+00
 -3
 9999
