
 displacements (vx,vy,vz) for set NALL and time  0.1000000E+01

         1  0.000000E+00  0.000000E+00  0.000000E+00
         2  0.000000E+00  0.000000E+00  0.000000E+00
         3  3.128772E-13  5.642850E-20 -1.904762E-05
         4  3.128774E-13  5.650559E-20 -1.904762E-05
         5  0.000000E+00  0.000000E+00  0.000000E+00
         6  0.000000E+00  0.000000E+00  0.000000E+00
         7  3.128772E-13 -6.349143E-20 -1.904762E-05
         8  3.128774E-13 -6.352199E-20 -1.904762E-05
         9  0.000000E+00  0.000000E+00 -2.904767E-05
        10  0.000000E+00  0.000000E+00 -2.904767E-05
        11  1.251784E-13 -6.715624E-17 -1.242862E-04
        12  1.251831E-13 -6.244444E-17 -1.242862E-04
        13  0.000000E+00  0.000000E+00 -2.904767E-05
        14  0.000000E+00  0.000000E+00 -2.904767E-05
        15  1.251831E-13 -7.186620E-17 -1.242862E-04
        16  1.251879E-13 -6.714134E-17 -1.242862E-04

 forces (fx,fy,fz) for set NALL and time  0.1000000E+01

         1  6.248827E-15  6.232093E-15  1.000000E+00
         2 -6.234289E-15  6.230698E-15  1.000000E+00
         3 -2.792592E-17  1.447884E-17 -1.792295E-12
         4  4.752248E-18  1.835156E-17 -2.304271E-12
         5  6.252116E-15 -6.244023E-15  1.000000E+00
         6 -6.236469E-15 -6.243849E-15  1.000000E+00
         7  3.062331E-18 -3.769729E-18 -1.471316E-12
         8 -1.007443E-17 -3.978672E-18 -2.031590E-12
         9  1.529680E-17  9.895377E-14  3.827452E-12
        10 -9.891423E-14  1.374532E-17  2.918089E-12
        11 -2.074134E-17  7.857800E-18 -1.000000E+00
        12 -7.170143E-17 -5.956741E-17 -1.000000E+00
        13  9.899669E-14  5.669584E-17  8.172352E-13
        14  2.094081E-17 -9.891354E-14  3.611694E-14
        15 -5.200688E-17 -4.920748E-17 -1.000000E+00
        16  2.575123E-17 -9.754158E-18 -1.000000E+00

 internal energy (element, energy) for set EALL and time  0.1000000E+01

         1  3.809524E-05
         2  1.904772E-04

 total internal energy for set EALL and time  0.1000000E+01

        2.285724E-04

 contact print energy (slave element+face,energy)for all contact elements and time 0.1000000E+01
         2          3  1.125006E-06
         2          3  6.296991E-07
         2          3  6.296991E-07
         2          3  6.296991E-07
         2          3  6.619741E-07
         2          3  6.619741E-07
         2          3  6.619741E-07
         2          3  1.125006E-06
         2          3  6.296991E-07
         2          3  6.296991E-07
         2          3  6.296991E-07
         2          3  6.619741E-07
         2          3  6.619741E-07
         2          3  6.619741E-07
         2          3  1.125006E-06
         2          3  6.296991E-07
         2          3  6.296991E-07
         2          3  6.296991E-07
         2          3  6.619741E-07
         2          3  6.619741E-07
         2          3  6.619741E-07
         2          3  1.125006E-06
         2          3  6.296991E-07
         2          3  6.296991E-07
         2          3  6.296991E-07
         2          3  6.619741E-07
         2          3  6.619741E-07
         2          3  6.619741E-07

 total contact spring energy for time  0.1000000E+01

        2.000010E-05
