
 displacements (vx,vy,vz) for set NALL and time  0.1000000E-05

         1  0.000000E+00  0.000000E+00  0.000000E+00
         2  2.998887E-02  0.000000E+00  0.000000E+00
         3  2.998887E-02  0.000000E+00  0.000000E+00
         4  2.998887E-02  0.000000E+00  0.000000E+00
         5  2.998887E-02  0.000000E+00  0.000000E+00
         6  2.998887E-02  0.000000E+00  0.000000E+00
         7  2.998887E-02  0.000000E+00  0.000000E+00
         8  2.998887E-02  0.000000E+00  0.000000E+00
         9  2.998887E-02  0.000000E+00  0.000000E+00
        10  2.998887E-02  0.000000E+00  0.000000E+00
        11  0.000000E+00  0.000000E+00  0.000000E+00
        12  0.000000E+00  0.000000E+00  0.000000E+00
        13  0.000000E+00  0.000000E+00  0.000000E+00
        14  0.000000E+00  0.000000E+00  0.000000E+00
        15  0.000000E+00  0.000000E+00  0.000000E+00
        16  0.000000E+00  0.000000E+00  0.000000E+00
        17  0.000000E+00  0.000000E+00  0.000000E+00
        18  0.000000E+00  0.000000E+00  0.000000E+00

 velocities (vx,vy,vz) for set NALL and time  0.1000000E-05

         1  0.000000E+00  0.000000E+00  0.000000E+00
         2  5.765360E+04  0.000000E+00  0.000000E+00
         3  5.765360E+04  0.000000E+00  0.000000E+00
         4  5.765360E+04  0.000000E+00  0.000000E+00
         5  5.765360E+04  0.000000E+00  0.000000E+00
         6  5.765360E+04  0.000000E+00  0.000000E+00
         7  5.765360E+04  0.000000E+00  0.000000E+00
         8  5.765360E+04  0.000000E+00  0.000000E+00
         9  5.765360E+04  0.000000E+00  0.000000E+00
        10  5.765360E+04  0.000000E+00  0.000000E+00
        11  0.000000E+00  0.000000E+00  0.000000E+00
        12  0.000000E+00  0.000000E+00  0.000000E+00
        13  0.000000E+00  0.000000E+00  0.000000E+00
        14  0.000000E+00  0.000000E+00  0.000000E+00
        15  0.000000E+00  0.000000E+00  0.000000E+00
        16  0.000000E+00  0.000000E+00  0.000000E+00
        17  0.000000E+00  0.000000E+00  0.000000E+00
        18  0.000000E+00  0.000000E+00  0.000000E+00

 displacements (vx,vy,vz) for set NALL and time  0.2000000E-05

         1  0.000000E+00  0.000000E+00  0.000000E+00
         2  1.095878E-01  0.000000E+00  0.000000E+00
         3  1.095878E-01  0.000000E+00  0.000000E+00
         4  1.095878E-01  0.000000E+00  0.000000E+00
         5  1.095878E-01  0.000000E+00  0.000000E+00
         6  1.095878E-01  0.000000E+00  0.000000E+00
         7  1.095878E-01  0.000000E+00  0.000000E+00
         8  1.095878E-01  0.000000E+00  0.000000E+00
         9  1.095878E-01  0.000000E+00  0.000000E+00
        10  1.095878E-01  0.000000E+00  0.000000E+00
        11  0.000000E+00  0.000000E+00  0.000000E+00
        12  0.000000E+00  0.000000E+00  0.000000E+00
        13  0.000000E+00  0.000000E+00  0.000000E+00
        14  0.000000E+00  0.000000E+00  0.000000E+00
        15  0.000000E+00  0.000000E+00  0.000000E+00
        16  0.000000E+00  0.000000E+00  0.000000E+00
        17  0.000000E+00  0.000000E+00  0.000000E+00
        18  0.000000E+00  0.000000E+00  0.000000E+00

 velocities (vx,vy,vz) for set NALL and time  0.2000000E-05

         1  0.000000E+00  0.000000E+00  0.000000E+00
         2  9.835391E+04  0.000000E+00  0.000000E+00
         3  9.835391E+04  0.000000E+00  0.000000E+00
         4  9.835391E+04  0.000000E+00  0.000000E+00
         5  9.835391E+04  0.000000E+00  0.000000E+00
         6  9.835391E+04  0.000000E+00  0.000000E+00
         7  9.835391E+04  0.000000E+00  0.000000E+00
         8  9.835391E+04  0.000000E+00  0.000000E+00
         9  9.835391E+04  0.000000E+00  0.000000E+00
        10  9.835391E+04  0.000000E+00  0.000000E+00
        11  0.000000E+00  0.000000E+00  0.000000E+00
        12  0.000000E+00  0.000000E+00  0.000000E+00
        13  0.000000E+00  0.000000E+00  0.000000E+00
        14  0.000000E+00  0.000000E+00  0.000000E+00
        15  0.000000E+00  0.000000E+00  0.000000E+00
        16  0.000000E+00  0.000000E+00  0.000000E+00
        17  0.000000E+00  0.000000E+00  0.000000E+00
        18  0.000000E+00  0.000000E+00  0.000000E+00

 displacements (vx,vy,vz) for set NALL and time  0.3000000E-05

         1  0.000000E+00  0.000000E+00  0.000000E+00
         2  2.198265E-01  0.000000E+00  0.000000E+00
         3  2.198265E-01  0.000000E+00  0.000000E+00
         4  2.198265E-01  0.000000E+00  0.000000E+00
         5  2.198265E-01  0.000000E+00  0.000000E+00
         6  2.198265E-01  0.000000E+00  0.000000E+00
         7  2.198265E-01  0.000000E+00  0.000000E+00
         8  2.198265E-01  0.000000E+00  0.000000E+00
         9  2.198265E-01  0.000000E+00  0.000000E+00
        10  2.198265E-01  0.000000E+00  0.000000E+00
        11  0.000000E+00  0.000000E+00  0.000000E+00
        12  0.000000E+00  0.000000E+00  0.000000E+00
        13  0.000000E+00  0.000000E+00  0.000000E+00
        14  0.000000E+00  0.000000E+00  0.000000E+00
        15  0.000000E+00  0.000000E+00  0.000000E+00
        16  0.000000E+00  0.000000E+00  0.000000E+00
        17  0.000000E+00  0.000000E+00  0.000000E+00
        18  0.000000E+00  0.000000E+00  0.000000E+00

 velocities (vx,vy,vz) for set NALL and time  0.3000000E-05

         1  0.000000E+00  0.000000E+00  0.000000E+00
         2  1.186631E+05  0.000000E+00  0.000000E+00
         3  1.186631E+05  0.000000E+00  0.000000E+00
         4  1.186631E+05  0.000000E+00  0.000000E+00
         5  1.186631E+05  0.000000E+00  0.000000E+00
         6  1.186631E+05  0.000000E+00  0.000000E+00
         7  1.186631E+05  0.000000E+00  0.000000E+00
         8  1.186631E+05  0.000000E+00  0.000000E+00
         9  1.186631E+05  0.000000E+00  0.000000E+00
        10  1.186631E+05  0.000000E+00  0.000000E+00
        11  0.000000E+00  0.000000E+00  0.000000E+00
        12  0.000000E+00  0.000000E+00  0.000000E+00
        13  0.000000E+00  0.000000E+00  0.000000E+00
        14  0.000000E+00  0.000000E+00  0.000000E+00
        15  0.000000E+00  0.000000E+00  0.000000E+00
        16  0.000000E+00  0.000000E+00  0.000000E+00
        17  0.000000E+00  0.000000E+00  0.000000E+00
        18  0.000000E+00  0.000000E+00  0.000000E+00

 displacements (vx,vy,vz) for set NALL and time  0.4000000E-05

         1  0.000000E+00  0.000000E+00  0.000000E+00
         2  3.400669E-01  0.000000E+00  0.000000E+00
         3  3.400669E-01  0.000000E+00  0.000000E+00
         4  3.400669E-01  0.000000E+00  0.000000E+00
         5  3.400669E-01  0.000000E+00  0.000000E+00
         6  3.400669E-01  0.000000E+00  0.000000E+00
         7  3.400669E-01  0.000000E+00  0.000000E+00
         8  3.400669E-01  0.000000E+00  0.000000E+00
         9  3.400669E-01  0.000000E+00  0.000000E+00
        10  3.400669E-01  0.000000E+00  0.000000E+00
        11  0.000000E+00  0.000000E+00  0.000000E+00
        12  0.000000E+00  0.000000E+00  0.000000E+00
        13  0.000000E+00  0.000000E+00  0.000000E+00
        14  0.000000E+00  0.000000E+00  0.000000E+00
        15  0.000000E+00  0.000000E+00  0.000000E+00
        16  0.000000E+00  0.000000E+00  0.000000E+00
        17  0.000000E+00  0.000000E+00  0.000000E+00
        18  0.000000E+00  0.000000E+00  0.000000E+00

 velocities (vx,vy,vz) for set NALL and time  0.4000000E-05

         1  0.000000E+00  0.000000E+00  0.000000E+00
         2  1.186327E+05  0.000000E+00  0.000000E+00
         3  1.186327E+05  0.000000E+00  0.000000E+00
         4  1.186327E+05  0.000000E+00  0.000000E+00
         5  1.186327E+05  0.000000E+00  0.000000E+00
         6  1.186327E+05  0.000000E+00  0.000000E+00
         7  1.186327E+05  0.000000E+00  0.000000E+00
         8  1.186327E+05  0.000000E+00  0.000000E+00
         9  1.186327E+05  0.000000E+00  0.000000E+00
        10  1.186327E+05  0.000000E+00  0.000000E+00
        11  0.000000E+00  0.000000E+00  0.000000E+00
        12  0.000000E+00  0.000000E+00  0.000000E+00
        13  0.000000E+00  0.000000E+00  0.000000E+00
        14  0.000000E+00  0.000000E+00  0.000000E+00
        15  0.000000E+00  0.000000E+00  0.000000E+00
        16  0.000000E+00  0.000000E+00  0.000000E+00
        17  0.000000E+00  0.000000E+00  0.000000E+00
        18  0.000000E+00  0.000000E+00  0.000000E+00

 displacements (vx,vy,vz) for set NALL and time  0.5000000E-05

         1  0.000000E+00  0.000000E+00  0.000000E+00
         2  4.512648E-01  0.000000E+00  0.000000E+00
         3  4.512648E-01  0.000000E+00  0.000000E+00
         4  4.512648E-01  0.000000E+00  0.000000E+00
         5  4.512648E-01  0.000000E+00  0.000000E+00
         6  4.512648E-01  0.000000E+00  0.000000E+00
         7  4.512648E-01  0.000000E+00  0.000000E+00
         8  4.512648E-01  0.000000E+00  0.000000E+00
         9  4.512648E-01  0.000000E+00  0.000000E+00
        10  4.512648E-01  0.000000E+00  0.000000E+00
        11  0.000000E+00  0.000000E+00  0.000000E+00
        12  0.000000E+00  0.000000E+00  0.000000E+00
        13  0.000000E+00  0.000000E+00  0.000000E+00
        14  0.000000E+00  0.000000E+00  0.000000E+00
        15  0.000000E+00  0.000000E+00  0.000000E+00
        16  0.000000E+00  0.000000E+00  0.000000E+00
        17  0.000000E+00  0.000000E+00  0.000000E+00
        18  0.000000E+00  0.000000E+00  0.000000E+00

 velocities (vx,vy,vz) for set NALL and time  0.5000000E-05

         1  0.000000E+00  0.000000E+00  0.000000E+00
         2  1.012777E+05  0.000000E+00  0.000000E+00
         3  1.012777E+05  0.000000E+00  0.000000E+00
         4  1.012777E+05  0.000000E+00  0.000000E+00
         5  1.012777E+05  0.000000E+00  0.000000E+00
         6  1.012777E+05  0.000000E+00  0.000000E+00
         7  1.012777E+05  0.000000E+00  0.000000E+00
         8  1.012777E+05  0.000000E+00  0.000000E+00
         9  1.012777E+05  0.000000E+00  0.000000E+00
        10  1.012777E+05  0.000000E+00  0.000000E+00
        11  0.000000E+00  0.000000E+00  0.000000E+00
        12  0.000000E+00  0.000000E+00  0.000000E+00
        13  0.000000E+00  0.000000E+00  0.000000E+00
        14  0.000000E+00  0.000000E+00  0.000000E+00
        15  0.000000E+00  0.000000E+00  0.000000E+00
        16  0.000000E+00  0.000000E+00  0.000000E+00
        17  0.000000E+00  0.000000E+00  0.000000E+00
        18  0.000000E+00  0.000000E+00  0.000000E+00

 displacements (vx,vy,vz) for set NALL and time  0.6000000E-05

         1  0.000000E+00  0.000000E+00  0.000000E+00
         2  5.385154E-01  0.000000E+00  0.000000E+00
         3  5.385154E-01  0.000000E+00  0.000000E+00
         4  5.385154E-01  0.000000E+00  0.000000E+00
         5  5.385154E-01  0.000000E+00  0.000000E+00
         6  5.385154E-01  0.000000E+00  0.000000E+00
         7  5.385154E-01  0.000000E+00  0.000000E+00
         8  5.385154E-01  0.000000E+00  0.000000E+00
         9  5.385154E-01  0.000000E+00  0.000000E+00
        10  5.385154E-01  0.000000E+00  0.000000E+00
        11  0.000000E+00  0.000000E+00  0.000000E+00
        12  0.000000E+00  0.000000E+00  0.000000E+00
        13  0.000000E+00  0.000000E+00  0.000000E+00
        14  0.000000E+00  0.000000E+00  0.000000E+00
        15  0.000000E+00  0.000000E+00  0.000000E+00
        16  0.000000E+00  0.000000E+00  0.000000E+00
        17  0.000000E+00  0.000000E+00  0.000000E+00
        18  0.000000E+00  0.000000E+00  0.000000E+00

 velocities (vx,vy,vz) for set NALL and time  0.6000000E-05

         1  0.000000E+00  0.000000E+00  0.000000E+00
         2  7.169744E+04  0.000000E+00  0.000000E+00
         3  7.169744E+04  0.000000E+00  0.000000E+00
         4  7.169744E+04  0.000000E+00  0.000000E+00
         5  7.169744E+04  0.000000E+00  0.000000E+00
         6  7.169744E+04  0.000000E+00  0.000000E+00
         7  7.169744E+04  0.000000E+00  0.000000E+00
         8  7.169744E+04  0.000000E+00  0.000000E+00
         9  7.169744E+04  0.000000E+00  0.000000E+00
        10  7.169744E+04  0.000000E+00  0.000000E+00
        11  0.000000E+00  0.000000E+00  0.000000E+00
        12  0.000000E+00  0.000000E+00  0.000000E+00
        13  0.000000E+00  0.000000E+00  0.000000E+00
        14  0.000000E+00  0.000000E+00  0.000000E+00
        15  0.000000E+00  0.000000E+00  0.000000E+00
        16  0.000000E+00  0.000000E+00  0.000000E+00
        17  0.000000E+00  0.000000E+00  0.000000E+00
        18  0.000000E+00  0.000000E+00  0.000000E+00

 displacements (vx,vy,vz) for set NALL and time  0.7000000E-05

         1  0.000000E+00  0.000000E+00  0.000000E+00
         2  5.926182E-01  0.000000E+00  0.000000E+00
         3  5.926182E-01  0.000000E+00  0.000000E+00
         4  5.926182E-01  0.000000E+00  0.000000E+00
         5  5.926182E-01  0.000000E+00  0.000000E+00
         6  5.926182E-01  0.000000E+00  0.000000E+00
         7  5.926182E-01  0.000000E+00  0.000000E+00
         8  5.926182E-01  0.000000E+00  0.000000E+00
         9  5.926182E-01  0.000000E+00  0.000000E+00
        10  5.926182E-01  0.000000E+00  0.000000E+00
        11  0.000000E+00  0.000000E+00  0.000000E+00
        12  0.000000E+00  0.000000E+00  0.000000E+00
        13  0.000000E+00  0.000000E+00  0.000000E+00
        14  0.000000E+00  0.000000E+00  0.000000E+00
        15  0.000000E+00  0.000000E+00  0.000000E+00
        16  0.000000E+00  0.000000E+00  0.000000E+00
        17  0.000000E+00  0.000000E+00  0.000000E+00
        18  0.000000E+00  0.000000E+00  0.000000E+00

 velocities (vx,vy,vz) for set NALL and time  0.7000000E-05

         1  0.000000E+00  0.000000E+00  0.000000E+00
         2  3.602239E+04  0.000000E+00  0.000000E+00
         3  3.602239E+04  0.000000E+00  0.000000E+00
         4  3.602239E+04  0.000000E+00  0.000000E+00
         5  3.602239E+04  0.000000E+00  0.000000E+00
         6  3.602239E+04  0.000000E+00  0.000000E+00
         7  3.602239E+04  0.000000E+00  0.000000E+00
         8  3.602239E+04  0.000000E+00  0.000000E+00
         9  3.602239E+04  0.000000E+00  0.000000E+00
        10  3.602239E+04  0.000000E+00  0.000000E+00
        11  0.000000E+00  0.000000E+00  0.000000E+00
        12  0.000000E+00  0.000000E+00  0.000000E+00
        13  0.000000E+00  0.000000E+00  0.000000E+00
        14  0.000000E+00  0.000000E+00  0.000000E+00
        15  0.000000E+00  0.000000E+00  0.000000E+00
        16  0.000000E+00  0.000000E+00  0.000000E+00
        17  0.000000E+00  0.000000E+00  0.000000E+00
        18  0.000000E+00  0.000000E+00  0.000000E+00

 displacements (vx,vy,vz) for set NALL and time  0.8000000E-05

         1  0.000000E+00  0.000000E+00  0.000000E+00
         2  6.105766E-01  0.000000E+00  0.000000E+00
         3  6.105766E-01  0.000000E+00  0.000000E+00
         4  6.105766E-01  0.000000E+00  0.000000E+00
         5  6.105766E-01  0.000000E+00  0.000000E+00
         6  6.105766E-01  0.000000E+00  0.000000E+00
         7  6.105766E-01  0.000000E+00  0.000000E+00
         8  6.105766E-01  0.000000E+00  0.000000E+00
         9  6.105766E-01  0.000000E+00  0.000000E+00
        10  6.105766E-01  0.000000E+00  0.000000E+00
        11  0.000000E+00  0.000000E+00  0.000000E+00
        12  0.000000E+00  0.000000E+00  0.000000E+00
        13  0.000000E+00  0.000000E+00  0.000000E+00
        14  0.000000E+00  0.000000E+00  0.000000E+00
        15  0.000000E+00  0.000000E+00  0.000000E+00
        16  0.000000E+00  0.000000E+00  0.000000E+00
        17  0.000000E+00  0.000000E+00  0.000000E+00
        18  0.000000E+00  0.000000E+00  0.000000E+00

 velocities (vx,vy,vz) for set NALL and time  0.8000000E-05

         1  0.000000E+00  0.000000E+00  0.000000E+00
         2  3.658159E+02  0.000000E+00  0.000000E+00
         3  3.658159E+02  0.000000E+00  0.000000E+00
         4  3.658159E+02  0.000000E+00  0.000000E+00
         5  3.658159E+02  0.000000E+00  0.000000E+00
         6  3.658159E+02  0.000000E+00  0.000000E+00
         7  3.658159E+02  0.000000E+00  0.000000E+00
         8  3.658159E+02  0.000000E+00  0.000000E+00
         9  3.658159E+02  0.000000E+00  0.000000E+00
        10  3.658159E+02  0.000000E+00  0.000000E+00
        11  0.000000E+00  0.000000E+00  0.000000E+00
        12  0.000000E+00  0.000000E+00  0.000000E+00
        13  0.000000E+00  0.000000E+00  0.000000E+00
        14  0.000000E+00  0.000000E+00  0.000000E+00
        15  0.000000E+00  0.000000E+00  0.000000E+00
        16  0.000000E+00  0.000000E+00  0.000000E+00
        17  0.000000E+00  0.000000E+00  0.000000E+00
        18  0.000000E+00  0.000000E+00  0.000000E+00

 displacements (vx,vy,vz) for set NALL and time  0.9000000E-05

         1  0.000000E+00  0.000000E+00  0.000000E+00
         2  5.951173E-01  0.000000E+00  0.000000E+00
         3  5.951173E-01  0.000000E+00  0.000000E+00
         4  5.951173E-01  0.000000E+00  0.000000E+00
         5  5.951173E-01  0.000000E+00  0.000000E+00
         6  5.951173E-01  0.000000E+00  0.000000E+00
         7  5.951173E-01  0.000000E+00  0.000000E+00
         8  5.951173E-01  0.000000E+00  0.000000E+00
         9  5.951173E-01  0.000000E+00  0.000000E+00
        10  5.951173E-01  0.000000E+00  0.000000E+00
        11  0.000000E+00  0.000000E+00  0.000000E+00
        12  0.000000E+00  0.000000E+00  0.000000E+00
        13  0.000000E+00  0.000000E+00  0.000000E+00
        14  0.000000E+00  0.000000E+00  0.000000E+00
        15  0.000000E+00  0.000000E+00  0.000000E+00
        16  0.000000E+00  0.000000E+00  0.000000E+00
        17  0.000000E+00  0.000000E+00  0.000000E+00
        18  0.000000E+00  0.000000E+00  0.000000E+00

 velocities (vx,vy,vz) for set NALL and time  0.9000000E-05

         1  0.000000E+00  0.000000E+00  0.000000E+00
         2 -3.006652E+04  0.000000E+00  0.000000E+00
         3 -3.006652E+04  0.000000E+00  0.000000E+00
         4 -3.006652E+04  0.000000E+00  0.000000E+00
         5 -3.006652E+04  0.000000E+00  0.000000E+00
         6 -3.006652E+04  0.000000E+00  0.000000E+00
         7 -3.006652E+04  0.000000E+00  0.000000E+00
         8 -3.006652E+04  0.000000E+00  0.000000E+00
         9 -3.006652E+04  0.000000E+00  0.000000E+00
        10 -3.006652E+04  0.000000E+00  0.000000E+00
        11  0.000000E+00  0.000000E+00  0.000000E+00
        12  0.000000E+00  0.000000E+00  0.000000E+00
        13  0.000000E+00  0.000000E+00  0.000000E+00
        14  0.000000E+00  0.000000E+00  0.000000E+00
        15  0.000000E+00  0.000000E+00  0.000000E+00
        16  0.000000E+00  0.000000E+00  0.000000E+00
        17  0.000000E+00  0.000000E+00  0.000000E+00
        18  0.000000E+00  0.000000E+00  0.000000E+00

 displacements (vx,vy,vz) for set NALL and time  0.1000000E-04

         1  0.000000E+00  0.000000E+00  0.000000E+00
         2  5.534446E-01  0.000000E+00  0.000000E+00
         3  5.534446E-01  0.000000E+00  0.000000E+00
         4  5.534446E-01  0.000000E+00  0.000000E+00
         5  5.534446E-01  0.000000E+00  0.000000E+00
         6  5.534446E-01  0.000000E+00  0.000000E+00
         7  5.534446E-01  0.000000E+00  0.000000E+00
         8  5.534446E-01  0.000000E+00  0.000000E+00
         9  5.534446E-01  0.000000E+00  0.000000E+00
        10  5.534446E-01  0.000000E+00  0.000000E+00
        11  0.000000E+00  0.000000E+00  0.000000E+00
        12  0.000000E+00  0.000000E+00  0.000000E+00
        13  0.000000E+00  0.000000E+00  0.000000E+00
        14  0.000000E+00  0.000000E+00  0.000000E+00
        15  0.000000E+00  0.000000E+00  0.000000E+00
        16  0.000000E+00  0.000000E+00  0.000000E+00
        17  0.000000E+00  0.000000E+00  0.000000E+00
        18  0.000000E+00  0.000000E+00  0.000000E+00

 velocities (vx,vy,vz) for set NALL and time  0.1000000E-04

         1  0.000000E+00  0.000000E+00  0.000000E+00
         2 -5.160253E+04  0.000000E+00  0.000000E+00
         3 -5.160253E+04  0.000000E+00  0.000000E+00
         4 -5.160253E+04  0.000000E+00  0.000000E+00
         5 -5.160253E+04  0.000000E+00  0.000000E+00
         6 -5.160253E+04  0.000000E+00  0.000000E+00
         7 -5.160253E+04  0.000000E+00  0.000000E+00
         8 -5.160253E+04  0.000000E+00  0.000000E+00
         9 -5.160253E+04  0.000000E+00  0.000000E+00
        10 -5.160253E+04  0.000000E+00  0.000000E+00
        11  0.000000E+00  0.000000E+00  0.000000E+00
        12  0.000000E+00  0.000000E+00  0.000000E+00
        13  0.000000E+00  0.000000E+00  0.000000E+00
        14  0.000000E+00  0.000000E+00  0.000000E+00
        15  0.000000E+00  0.000000E+00  0.000000E+00
        16  0.000000E+00  0.000000E+00  0.000000E+00
        17  0.000000E+00  0.000000E+00  0.000000E+00
        18  0.000000E+00  0.000000E+00  0.000000E+00
