    1C
    1C
    1UUSER
    1UDATE              24.november.2019    
    1UTIME              19:36:19
    1UHOST
    1UPGM               CalculiX
    1UDIR
    1UDBN
    2C                                                                   1
 -1         1-1.00000E+00 0.00000E+00 0.00000E+00
 -1         2-9.80785E-01 1.95090E-01 0.00000E+00
 -1         3-9.80785E-01 1.95090E-01 1.00000E-01
 -1         4-1.00000E+00 0.00000E+00 1.00000E-01
 -1         5-8.75000E-01 0.00000E+00 0.00000E+00
 -1         6-8.58187E-01 1.70704E-01-2.22045E-16
 -1         7-8.58187E-01 1.70704E-01 1.00000E-01
 -1         8-8.75000E-01 0.00000E+00 1.00000E-01
 -1         9-7.50000E-01 0.00000E+00 0.00000E+00
 -1        10-7.35589E-01 1.46318E-01 5.55112E-17
 -1        11-7.35589E-01 1.46318E-01 1.00000E-01
 -1        12-7.50000E-01 0.00000E+00 1.00000E-01
 -1        13-6.25000E-01 0.00000E+00 0.00000E+00
 -1        14-6.12991E-01 1.21931E-01 0.00000E+00
 -1        15-6.12991E-01 1.21931E-01 1.00000E-01
 -1        16-6.25000E-01 0.00000E+00 1.00000E-01
 -1        17-5.00000E-01 0.00000E+00 0.00000E+00
 -1        18-4.90393E-01 9.75452E-02 0.00000E+00
 -1        19-4.90393E-01 9.75452E-02 1.00000E-01
 -1        20-5.00000E-01 0.00000E+00 1.00000E-01
 -1        21-9.23880E-01 3.82683E-01 0.00000E+00
 -1        22-9.23880E-01 3.82683E-01 1.00000E-01
 -1        23-8.08395E-01 3.34848E-01 0.00000E+00
 -1        24-8.08395E-01 3.34848E-01 1.00000E-01
 -1        25-6.92910E-01 2.87013E-01 1.11022E-16
 -1        26-6.92910E-01 2.87013E-01 1.00000E-01
 -1        27-5.77425E-01 2.39177E-01 1.11022E-16
 -1        28-5.77425E-01 2.39177E-01 1.00000E-01
 -1        29-4.61940E-01 1.91342E-01 0.00000E+00
 -1        30-4.61940E-01 1.91342E-01 1.00000E-01
 -1        31-8.31470E-01 5.55570E-01 0.00000E+00
 -1        32-8.31470E-01 5.55570E-01 1.00000E-01
 -1        33-7.27536E-01 4.86124E-01 0.00000E+00
 -1        34-7.27536E-01 4.86124E-01 1.00000E-01
 -1        35-6.23602E-01 4.16678E-01 0.00000E+00
 -1        36-6.23602E-01 4.16678E-01 1.00000E-01
 -1        37-5.19669E-01 3.47231E-01 0.00000E+00
 -1        38-5.19669E-01 3.47231E-01 1.00000E-01
 -1        39-4.15735E-01 2.77785E-01 0.00000E+00
 -1        40-4.15735E-01 2.77785E-01 1.00000E-01
 -1        41-7.07107E-01 7.07107E-01 0.00000E+00
 -1        42-7.07107E-01 7.07107E-01 1.00000E-01
 -1        43-6.18718E-01 6.18718E-01-1.11022E-16
 -1        44-6.18718E-01 6.18718E-01 1.00000E-01
 -1        45-5.30330E-01 5.30330E-01 5.55112E-17
 -1        46-5.30330E-01 5.30330E-01 1.00000E-01
 -1        47-4.41942E-01 4.41942E-01-2.22045E-16
 -1        48-4.41942E-01 4.41942E-01 1.00000E-01
 -1        49-3.53553E-01 3.53553E-01 0.00000E+00
 -1        50-3.53553E-01 3.53553E-01 1.00000E-01
 -3
    3C                                                                   1
 -1         1    1    0WATER
 -2         1         2         3         4         5         6         7         8
 -1         2    1    0WATER
 -2         5         6         7         8         9        10        11        12
 -1         3    1    0WATER
 -2         9        10        11        12        13        14        15        16
 -1         4    1    0WATER
 -2        13        14        15        16        17        18        19        20
 -1         5    1    0WATER
 -2         2        21        22         3         6        23        24         7
 -1         6    1    0WATER
 -2         6        23        24         7        10        25        26        11
 -1         7    1    0WATER
 -2        10        25        26        11        14        27        28        15
 -1         8    1    0WATER
 -2        14        27        28        15        18        29        30        19
 -1         9    1    0WATER
 -2        21        31        32        22        23        33        34        24
 -1        10    1    0WATER
 -2        23        33        34        24        25        35        36        26
 -1        11    1    0WATER
 -2        25        35        36        26        27        37        38        28
 -1        12    1    0WATER
 -2        27        37        38        28        29        39        40        30
 -1        13    1    0WATER
 -2        31        41        42        32        33        43        44        34
 -1        14    1    0WATER
 -2        33        43        44        34        35        45        46        36
 -1        15    1    0WATER
 -2        35        45        46        36        37        47        48        38
 -1        16    1    0WATER
 -2        37        47        48        38        39        49        50        40
 -3
    1PSTEP                         1                                                                                                
  100CL  101 0.89422E+01          50                     3    1           1                                                         
 -4  V3DF        4    1                                                                                                             
 -5  V1          1    2    1    0                                                                                                   
 -5  V2          1    2    2    0                                                                                                   
 -5  V3          1    2    3    0                                                                                                   
 -5  ALL         1    2    0    0    1ALL                                                                                           
 -1         1-9.80171E-02-9.95185E-01 0.00000E+00
 -1         2-1.94151E-01-9.76063E-01 0.00000E+00
 -1         3-1.94151E-01-9.76063E-01 0.00000E+00
 -1         4-9.80171E-02-9.95185E-01 0.00000E+00
 -1         5 2.25421E-03-1.13306E+00 0.00000E+00
 -1         6-2.21076E-01-1.11110E+00 0.00000E+00
 -1         7-2.21076E-01-1.11110E+00 0.00000E+00
 -1         8 2.25421E-03-1.13306E+00 0.00000E+00
 -1         9 5.78378E-03-1.31259E+00 0.00000E+00
 -1        10-2.56292E-01-1.28609E+00 0.00000E+00
 -1        11-2.56292E-01-1.28609E+00 0.00000E+00
 -1        12 5.78378E-03-1.31259E+00 0.00000E+00
 -1        13 1.65440E-03-1.56363E+00 0.00000E+00
 -1        14-3.10297E-01-1.53305E+00 0.00000E+00
 -1        15-3.10297E-01-1.53305E+00 0.00000E+00
 -1        16 1.65440E-03-1.56363E+00 0.00000E+00
 -1        17-1.96034E-01-1.99037E+00 0.00000E+00
 -1        18-3.88302E-01-1.95213E+00 0.00000E+00
 -1        19-3.88302E-01-1.95213E+00 0.00000E+00
 -1        20-1.96034E-01-1.99037E+00 0.00000E+00
 -1        21-3.80841E-01-9.19431E-01 0.00000E+00
 -1        22-3.80841E-01-9.19431E-01 0.00000E+00
 -1        23-4.33573E-01-1.04381E+00 0.00000E+00
 -1        24-4.33573E-01-1.04381E+00 0.00000E+00
 -1        25-5.03259E-01-1.21026E+00 0.00000E+00
 -1        26-5.03259E-01-1.21026E+00 0.00000E+00
 -1        27-6.01388E-01-1.44588E+00 0.00000E+00
 -1        28-6.01388E-01-1.44588E+00 0.00000E+00
 -1        29-7.61681E-01-1.83886E+00 0.00000E+00
 -1        30-7.61681E-01-1.83886E+00 0.00000E+00
 -1        31-5.52895E-01-8.27466E-01 0.00000E+00
 -1        32-5.52895E-01-8.27466E-01 0.00000E+00
 -1        33-6.27133E-01-9.39841E-01 0.00000E+00
 -1        34-6.27133E-01-9.39841E-01 0.00000E+00
 -1        35-7.26428E-01-1.09252E+00 0.00000E+00
 -1        36-7.26428E-01-1.09252E+00 0.00000E+00
 -1        37-8.68881E-01-1.30357E+00 0.00000E+00
 -1        38-8.68881E-01-1.30357E+00 0.00000E+00
 -1        39-1.10579E+00-1.65493E+00 0.00000E+00
 -1        40-1.10579E+00-1.65493E+00 0.00000E+00
 -1        41-6.34393E-01-7.73010E-01 0.00000E+00
 -1        42-6.34393E-01-7.73010E-01 0.00000E+00
 -1        43-7.98923E-01-8.00702E-01 0.00000E+00
 -1        44-7.98923E-01-8.00702E-01 0.00000E+00
 -1        45-9.25764E-01-9.29864E-01 0.00000E+00
 -1        46-9.25764E-01-9.29864E-01 0.00000E+00
 -1        47-1.10936E+00-1.10386E+00 0.00000E+00
 -1        48-1.10936E+00-1.10386E+00 0.00000E+00
 -1        49-1.26879E+00-1.54602E+00 0.00000E+00
 -1        50-1.26879E+00-1.54602E+00 0.00000E+00
 -3
    1PSTEP                         1                                                                                                
  100CL  101 0.89422E+01          50                     3    1           1                                                         
 -4  PS3DF       1    1                                                                                                             
 -5  PS          1    1    0    0                                                                                                   
 -1         1 1.92070E+00
 -1         2 1.93165E+00
 -1         3 1.93165E+00
 -1         4 1.92070E+00
 -1         5 1.78265E+00
 -1         6 1.82932E+00
 -1         7 1.82932E+00
 -1         8 1.78265E+00
 -1         9 1.67589E+00
 -1        10 1.69141E+00
 -1        11 1.69141E+00
 -1        12 1.67589E+00
 -1        13 1.27936E+00
 -1        14 1.24041E+00
 -1        15 1.24041E+00
 -1        16 1.27936E+00
 -1        17 5.90114E-01
 -1        18 5.84983E-01
 -1        19 5.84983E-01
 -1        20 5.90114E-01
 -1        21 1.97993E+00
 -1        22 1.97993E+00
 -1        23 1.84059E+00
 -1        24 1.84059E+00
 -1        25 1.65222E+00
 -1        26 1.65222E+00
 -1        27 1.22533E+00
 -1        28 1.22533E+00
 -1        29 6.24854E-01
 -1        30 6.24854E-01
 -1        31 1.91623E+00
 -1        32 1.91623E+00
 -1        33 1.76874E+00
 -1        34 1.76874E+00
 -1        35 1.61886E+00
 -1        36 1.61886E+00
 -1        37 1.26847E+00
 -1        38 1.26847E+00
 -1        39 7.13249E-01
 -1        40 7.13249E-01
 -1        41 1.81519E+00
 -1        42 1.81519E+00
 -1        43 1.73229E+00
 -1        44 1.73229E+00
 -1        45 1.64021E+00
 -1        46 1.64021E+00
 -1        47 1.28773E+00
 -1        48 1.28773E+00
 -1        49 7.56642E-01
 -1        50 7.56642E-01
 -3
    1PSTEP                         1                                                                                                
  100CL  101 0.89422E+01          50                     3    1           1                                                         
 -4  TS3DF       1    1                                                                                                             
 -5  TS          1    1    0    0                                                                                                   
 -1         1 1.00000E+00
 -1         2 1.00000E+00
 -1         3 1.00000E+00
 -1         4 1.00000E+00
 -1         5 6.81212E-01
 -1         6 8.81060E-01
 -1         7 8.81060E-01
 -1         8 6.81212E-01
 -1         9 6.26687E-01
 -1        10 8.77357E-01
 -1        11 8.77357E-01
 -1        12 6.26687E-01
 -1        13 6.89537E-01
 -1        14 9.50742E-01
 -1        15 9.50742E-01
 -1        16 6.89537E-01
 -1        17 1.00000E+00
 -1        18 1.00000E+00
 -1        19 1.00000E+00
 -1        20 1.00000E+00
 -1        21 1.00000E+00
 -1        22 1.00000E+00
 -1        23 1.02871E+00
 -1        24 1.02871E+00
 -1        25 1.05098E+00
 -1        26 1.05098E+00
 -1        27 1.13795E+00
 -1        28 1.13795E+00
 -1        29 1.00000E+00
 -1        30 1.00000E+00
 -1        31 1.00000E+00
 -1        32 1.00000E+00
 -1        33 8.02785E-01
 -1        34 8.02785E-01
 -1        35 7.65769E-01
 -1        36 7.65769E-01
 -1        37 8.37484E-01
 -1        38 8.37484E-01
 -1        39 1.00000E+00
 -1        40 1.00000E+00
 -1        41 1.00000E+00
 -1        42 1.00000E+00
 -1        43 6.29065E-01
 -1        44 6.29065E-01
 -1        45 5.57599E-01
 -1        46 5.57599E-01
 -1        47 6.11008E-01
 -1        48 6.11008E-01
 -1        49 1.00000E+00
 -1        50 1.00000E+00
 -3
 9999
