
 displacements (vx,vy,vz) for set NALL and time  0.1000000E+01

         1  0.000000E+00  0.000000E+00  0.000000E+00
         2  0.000000E+00  0.000000E+00  0.000000E+00
         3 -2.131963E-05 -2.274459E-05  3.068865E-05
         4 -2.309075E-05 -2.309075E-05  6.422147E-05
         5  0.000000E+00  0.000000E+00  0.000000E+00
         6  0.000000E+00  0.000000E+00  0.000000E+00
         7 -2.142532E-05 -2.142532E-05 -4.920651E-06
         8 -2.274459E-05 -2.131963E-05  3.068865E-05
         9 -7.756623E-05 -7.910646E-05  5.312455E-05
        10 -7.852904E-05 -7.852904E-05  1.049974E-04
        11 -7.695209E-05 -7.695209E-05 -1.007028E-05
        12 -7.910646E-05 -7.756623E-05  5.312455E-05
        13 -1.520220E-04 -1.448659E-04  6.143325E-05
        14 -1.445238E-04 -1.445238E-04  1.175539E-04
        15 -1.527657E-04 -1.527657E-04 -1.271164E-05
        16 -1.448659E-04 -1.520220E-04  6.143325E-05
        17  0.000000E+00  0.000000E+00  0.000000E+00
        18  0.000000E+00  0.000000E+00  0.000000E+00
        19 -2.133002E-05 -1.628150E-05 -3.726474E-05
        20 -2.265678E-05 -1.620042E-05  2.715457E-06
        21 -7.675272E-05 -7.141079E-05 -7.203306E-05
        22 -7.906239E-05 -7.612381E-05  1.193178E-05
        23 -1.533555E-04 -1.811070E-04 -8.928028E-05
        24 -1.451625E-04 -1.716702E-04  1.878555E-05
        25  0.000000E+00  0.000000E+00  0.000000E+00
        26  0.000000E+00  0.000000E+00  0.000000E+00
        27 -2.112640E-05 -1.500491E-05 -7.284095E-05
        28 -2.291282E-05 -1.443543E-05 -3.090608E-05
        29 -7.716164E-05 -6.900575E-05 -1.361006E-04
        30 -7.843497E-05 -7.496405E-05 -4.036758E-05
        31 -1.531908E-04 -1.894396E-04 -1.666889E-04
        32 -1.451114E-04 -1.795520E-04 -3.737279E-05
        33  0.000000E+00  0.000000E+00  0.000000E+00
        34 -1.620042E-05 -2.265678E-05  2.715457E-06
        35  0.000000E+00  0.000000E+00  0.000000E+00
        36 -1.628150E-05 -2.133002E-05 -3.726474E-05
        37 -7.612381E-05 -7.906239E-05  1.193178E-05
        38 -7.141079E-05 -7.675272E-05 -7.203306E-05
        39 -1.716702E-04 -1.451625E-04  1.878555E-05
        40 -1.811070E-04 -1.533555E-04 -8.928028E-05
        41  0.000000E+00  0.000000E+00  0.000000E+00
        42 -1.618741E-05 -1.618741E-05 -7.939879E-05
        43 -7.107965E-05 -7.107965E-05 -1.624110E-04
        44 -1.818818E-04 -1.818818E-04 -2.797587E-04
        45  0.000000E+00  0.000000E+00  0.000000E+00
        46 -1.601030E-05 -1.486789E-05 -1.192889E-04
        47 -7.544819E-05 -6.894981E-05 -2.472377E-04
        48 -1.732533E-04 -1.897061E-04 -3.948892E-04
        49  0.000000E+00  0.000000E+00  0.000000E+00
        50 -1.443543E-05 -2.291282E-05 -3.090608E-05
        51  0.000000E+00  0.000000E+00  0.000000E+00
        52 -1.500491E-05 -2.112640E-05 -7.284095E-05
        53 -7.496405E-05 -7.843497E-05 -4.036758E-05
        54 -6.900575E-05 -7.716164E-05 -1.361006E-04
        55 -1.795520E-04 -1.451114E-04 -3.737279E-05
        56 -1.894396E-04 -1.531908E-04 -1.666889E-04
        57  0.000000E+00  0.000000E+00  0.000000E+00
        58 -1.486789E-05 -1.601030E-05 -1.192889E-04
        59 -6.894981E-05 -7.544819E-05 -2.472377E-04
        60 -1.897061E-04 -1.732533E-04 -3.948892E-04
        61  0.000000E+00  0.000000E+00  0.000000E+00
        62 -1.415974E-05 -1.415974E-05 -1.613346E-04
        63 -7.483619E-05 -7.483619E-05 -3.437250E-04
        64 -1.801430E-04 -1.801430E-04 -5.222888E-04
        65  2.064653E-04  2.064653E-04 -2.222066E-04
        66  2.090677E-04  2.046614E-04 -2.886244E-04
        67  1.353414E-04  1.371004E-04 -3.707291E-04
        68  1.364361E-04  1.364361E-04 -3.022039E-04
        69  2.046614E-04  2.090677E-04 -2.886244E-04
        70  2.062061E-04  2.062061E-04 -3.711419E-04
        71  1.364607E-04  1.364607E-04 -4.408124E-04
        72  1.371004E-04  1.353414E-04 -3.707291E-04
        73  6.795903E-05  6.833074E-05 -4.500363E-04
        74  6.804560E-05  6.804560E-05 -3.818900E-04
        75  6.826836E-05  6.826836E-05 -5.180833E-04
        76  6.833074E-05  6.795903E-05 -4.500363E-04
        77  0.000000E+00  0.000000E+00 -5.292727E-04
        78  0.000000E+00  0.000000E+00 -4.612670E-04
        79  0.000000E+00  0.000000E+00 -5.972689E-04
        80  0.000000E+00  0.000000E+00 -5.292727E-04
        81  2.018984E-04  2.122929E-04 -3.464228E-04
        82  2.026018E-04  2.088711E-04 -4.340907E-04
        83  1.376005E-04  1.360423E-04 -5.081264E-04
        84  1.378602E-04  1.346424E-04 -4.354563E-04
        85  6.891926E-05  6.772593E-05 -5.860406E-04
        86  6.894981E-05  6.737214E-05 -5.176245E-04
        87  0.000000E+00  0.000000E+00 -6.653917E-04
        88  0.000000E+00  0.000000E+00 -5.974338E-04
        89  2.009471E-04  2.136749E-04 -4.027274E-04
        90  2.018681E-04  2.097842E-04 -4.959034E-04
        91  1.376365E-04  1.358377E-04 -5.735605E-04
        92  1.379700E-04  1.343051E-04 -4.999933E-04
        93  6.927693E-05  6.758741E-05 -6.542525E-04
        94  6.930016E-05  6.718211E-05 -5.857016E-04
        95  0.000000E+00  0.000000E+00 -7.341558E-04
        96  0.000000E+00  0.000000E+00 -6.661973E-04
        97  2.122929E-04  2.018984E-04 -3.464228E-04
        98  1.346424E-04  1.378602E-04 -4.354563E-04
        99  2.088711E-04  2.026018E-04 -4.340907E-04
       100  1.360423E-04  1.376005E-04 -5.081264E-04
       101  6.737214E-05  6.894981E-05 -5.176245E-04
       102  6.772593E-05  6.891926E-05 -5.860406E-04
       103  0.000000E+00  0.000000E+00 -5.974338E-04
       104  0.000000E+00  0.000000E+00 -6.653917E-04
       105  2.044136E-04  2.044136E-04 -4.994496E-04
       106  1.374750E-04  1.374750E-04 -5.775951E-04
       107  6.851826E-05  6.851826E-05 -6.550247E-04
       108  0.000000E+00  0.000000E+00 -7.340188E-04
       109  2.033883E-04  2.049334E-04 -5.632097E-04
       110  1.375241E-04  1.374023E-04 -6.442944E-04
       111  6.897274E-05  6.843260E-05 -7.236471E-04
       112  0.000000E+00  0.000000E+00 -8.029203E-04
       113  2.136749E-04  2.009471E-04 -4.027274E-04
       114  1.343051E-04  1.379700E-04 -4.999933E-04
       115  2.097842E-04  2.018681E-04 -4.959034E-04
       116  1.358377E-04  1.376365E-04 -5.735605E-04
       117  6.718211E-05  6.930016E-05 -5.857016E-04
       118  6.758741E-05  6.927693E-05 -6.542525E-04
       119  0.000000E+00  0.000000E+00 -6.661973E-04
       120  0.000000E+00  0.000000E+00 -7.341558E-04
       121  2.049334E-04  2.033883E-04 -5.632097E-04
       122  1.374023E-04  1.375241E-04 -6.442944E-04
       123  6.843260E-05  6.897274E-05 -7.236471E-04
       124  0.000000E+00  0.000000E+00 -8.029203E-04
       125  2.039836E-04  2.039836E-04 -6.289168E-04
       126  1.374512E-04  1.374512E-04 -7.115512E-04
       127  6.888829E-05  6.888829E-05 -7.924526E-04
       128  0.000000E+00  0.000000E+00 -8.718642E-04
