
 displacements (vx,vy,vz) for set NALL and time  0.1000000E-03

         1 -1.861264E-19 -2.986597E-17 -4.905000E-05
         2  1.867111E-17 -2.987578E-17 -4.905000E-05
         3  1.178854E-17  4.300217E-17 -4.905000E-05
         4 -7.069396E-18  4.300883E-17 -4.905000E-05
         5 -1.840071E-19 -4.872896E-17 -4.905000E-05
         6  1.866981E-17 -4.872649E-17 -4.905000E-05
         7  1.178877E-17  2.415066E-17 -4.905000E-05
         8 -7.062729E-18  2.414727E-17 -4.905000E-05
         9  9.241957E-18 -2.987084E-17 -4.905000E-05
        10  1.523147E-17  6.568446E-18 -4.905000E-05
        11  2.360656E-18  4.300558E-17 -4.905000E-05
        12 -3.624067E-18  6.565368E-18 -4.905000E-05
        13 -1.847176E-19 -3.929842E-17 -4.905000E-05
        14  1.866964E-17 -3.929952E-17 -4.905000E-05
        15  1.178937E-17  3.357584E-17 -4.905000E-05
        16 -7.066298E-18  3.357796E-17 -4.905000E-05
        17  9.244099E-18 -4.872712E-17 -4.905000E-05
        18  1.523228E-17 -1.229010E-17 -4.905000E-05
        19  2.361278E-18  2.414824E-17 -4.905000E-05
        20 -3.625718E-18 -1.228760E-17 -4.905000E-05
        21  7.215425E-18  6.102844E-18  4.905000E-05
        22 -5.182381E-19  6.105761E-18  4.905000E-05
        23 -1.252671E-17 -5.826486E-18  4.905000E-05
        24 -4.767607E-18 -5.814349E-18  4.905000E-05
        25  7.228408E-18  1.383884E-17  4.905000E-05
        26 -5.210658E-19  1.385451E-17  4.905000E-05
        27 -1.252678E-17  1.932680E-18  4.905000E-05
        28 -4.763789E-18  1.947912E-18  4.905000E-05
        29  3.352723E-18  6.104171E-18  4.905000E-05
        30 -6.522361E-18  1.413318E-19  4.905000E-05
        31 -8.649911E-18 -5.820303E-18  4.905000E-05
        32  1.227747E-18  1.396139E-19  4.905000E-05
        33  7.221947E-18  9.977442E-18  4.905000E-05
        34 -5.213037E-19  9.970090E-18  4.905000E-05
        35 -1.252507E-17 -1.936269E-18  4.905000E-05
        36 -4.765746E-18 -1.940406E-18  4.905000E-05
        37  3.354021E-18  1.384741E-17  4.905000E-05
        38 -6.520261E-18  7.887618E-18  4.905000E-05
        39 -8.647010E-18  1.939581E-18  4.905000E-05
        40  1.224923E-18  7.888315E-18  4.905000E-05

 stresses (elem, integ.pnt.,sxx,syy,szz,sxy,sxz,syz) for set EALL and time  0.1000000E-03

         1   1  2.106236E-15  2.804451E-15  5.030744E-15  3.911578E-16 -1.833509E-15 -2.449930E-15
         1   2 -1.972316E-15 -1.341536E-15 -4.907448E-15 -6.561178E-17 -8.172812E-17  6.652419E-16
         1   3 -2.147554E-15 -1.820889E-15 -6.526840E-15 -4.818287E-16 -1.413177E-15  9.187560E-16
         1   4  4.805410E-17 -6.717679E-16 -1.871141E-16 -1.239095E-16  2.372694E-15 -1.084850E-15
         1   5  1.567286E-15  9.489192E-16  3.600892E-15  8.181616E-18 -1.367228E-15  8.772896E-16
         1   6  1.464986E-15  1.053694E-15  3.957388E-15  1.293051E-16 -2.477793E-15 -1.527341E-15
         1   7  1.286987E-15  1.986364E-15  3.828036E-15 -3.749997E-17 -5.361803E-16  2.640519E-15
         1   8 -2.938666E-15 -2.524308E-15 -6.975200E-15  5.471747E-17  2.957237E-15  1.315385E-16
         1   9  2.211332E-15  2.788590E-15  5.591146E-15  8.444703E-17 -6.381598E-15 -1.818390E-15
         1  10 -2.626272E-16 -2.834138E-16 -1.638123E-16  1.925150E-16 -3.651860E-16  7.430443E-16
         1  11  2.176195E-15  2.349914E-15  5.626879E-15  6.950091E-17 -1.017844E-15  6.907784E-16
         1  12  6.164923E-16  7.480354E-16  1.298743E-15 -1.296051E-17  4.458605E-16  3.027854E-15
         1  13  1.110194E-15  6.388140E-16  1.947718E-15 -2.436009E-16 -8.534267E-16 -7.666625E-16
         1  14  1.116747E-16 -2.582490E-16 -4.397231E-17 -6.346834E-17  7.974063E-16 -9.148880E-18
         1  15  8.781263E-16  7.152782E-16  2.434667E-15  1.056966E-16 -1.045362E-15  2.453565E-15
         1  16 -4.604131E-15 -3.946338E-15 -9.680217E-15  1.994419E-16 -7.943538E-16 -3.234168E-15
         1  17 -3.142283E-15 -3.031446E-15 -7.544180E-15  5.398674E-17 -6.712246E-16 -2.985910E-16
         1  18  2.358908E-15  2.370708E-15  5.510054E-15 -1.539563E-16 -2.105011E-16 -5.836365E-16
         1  19 -5.592249E-15 -5.901205E-15 -1.269764E-14 -9.654496E-17 -1.873493E-15 -1.844623E-16
         1  20 -7.409034E-16 -5.934156E-16 -7.560495E-16  1.141964E-16  1.420895E-15  4.389725E-16
         1  21 -5.038117E-16 -1.365593E-16 -3.699882E-16  3.654905E-16  9.823468E-16 -2.448766E-15
         1  22 -9.602712E-16 -9.815068E-16 -3.428564E-15 -3.742605E-16  1.427184E-15 -2.277080E-15
         1  23  4.492806E-16  5.295025E-16  2.936349E-16 -1.460865E-16  2.368873E-15  2.637684E-16
         1  24 -5.323593E-16 -2.450607E-16 -1.211549E-15  7.111992E-17 -3.432600E-15  1.277455E-15
         1  25  2.619707E-15  3.208491E-15  7.440521E-15  5.048645E-16 -1.566246E-15  2.608551E-15
         1  26  1.559352E-15  1.339242E-15  3.359855E-15  1.217368E-16 -1.061659E-15  1.569785E-16
         1  27 -2.029423E-15 -2.610507E-15 -5.127394E-15 -3.238788E-16  7.726428E-16  2.198694E-15
         2   1  3.629007E-15  4.492299E-15  1.097448E-14 -1.687946E-15 -1.353208E-15  1.293829E-15
         2   2 -2.014586E-16 -4.530173E-16 -1.619358E-15  1.190373E-17  1.943829E-15  9.483963E-16
         2   3  7.902784E-15  7.163916E-15  1.572626E-14  1.776894E-15 -6.835350E-15 -1.625781E-15
         2   4 -6.296810E-16 -1.356661E-15 -2.730426E-15  1.330193E-17  2.576299E-15  3.602266E-16
         2   5  2.876131E-16 -2.645589E-16  6.916249E-18  1.644317E-16 -8.414670E-17  2.673679E-16
         2   6 -4.418745E-16 -5.525892E-16 -2.094006E-16  3.172098E-16 -4.729713E-15  4.547735E-15
         2   7 -7.623164E-16 -1.580509E-16 -1.699126E-15  1.394254E-15  8.958409E-16 -2.317938E-15
         2   8 -2.391954E-15 -1.432494E-15 -4.349119E-15 -2.753267E-16 -5.396004E-15  3.388957E-16
         2   9 -5.395989E-15 -4.175575E-15 -1.052018E-14 -2.006751E-15 -5.374422E-16  2.169477E-15
         2  10  4.792081E-15  6.319504E-15  1.329458E-14 -1.406193E-16 -1.234446E-16 -2.564270E-15
         2  11 -3.075792E-15 -2.281083E-15 -8.010632E-15  8.516956E-18 -1.583297E-15  2.174872E-16
         2  12  1.298907E-15  1.988444E-15  1.341959E-15  2.227930E-16 -7.275847E-16  2.920624E-15
         2  13 -9.777638E-16 -1.610560E-15 -3.622528E-15 -6.518638E-17 -3.300191E-16 -8.802545E-16
         2  14 -5.222748E-17 -5.102162E-16 -8.802408E-16  9.542067E-18  5.918571E-16 -2.636718E-18
         2  15  3.040508E-16  2.875189E-16  1.422609E-15  8.591881E-17 -9.254896E-16  9.331899E-16
         2  16 -1.387601E-15 -1.803080E-15 -2.380220E-15  2.445865E-16  8.316903E-16  2.564470E-16
         2  17 -2.862956E-15 -3.305379E-15 -5.408039E-15 -2.708343E-17 -1.611498E-15  3.245530E-16
         2  18 -2.634069E-15 -3.197677E-15 -4.773431E-15 -3.605966E-16 -1.362844E-15 -6.437595E-16
         2  19  4.053727E-16  1.230409E-16  5.139078E-15  1.280779E-15  1.076767E-15 -4.641564E-15
         2  20 -4.521659E-15 -5.154568E-15 -8.594930E-15 -1.207985E-16 -3.078297E-15 -3.685548E-16
         2  21 -1.308261E-16 -4.867706E-16  1.504552E-15 -1.457236E-15 -4.003615E-15  5.804924E-15
         2  22  1.632935E-15  1.208170E-15  2.275347E-15 -1.420262E-16 -1.076635E-15  1.438838E-15
         2  23  1.038023E-16 -1.461563E-16 -7.242139E-16 -1.436991E-16 -3.267777E-15  6.247820E-16
         2  24  1.802400E-15  1.993898E-15  4.696428E-15 -1.437237E-16  2.457199E-15  4.174106E-15
         2  25  4.237850E-16  1.690141E-15 -7.732990E-17 -7.758556E-16 -4.187835E-15 -8.614987E-16
         2  26  1.155138E-15  2.012413E-15  1.306019E-15  3.503856E-16  3.110506E-15  1.891776E-15
         2  27  1.640929E-15  1.994881E-15  1.802251E-15  1.414783E-15  8.109291E-16  2.577496E-15

 displacements (vx,vy,vz) for set NALL and time  0.2000000E-03

         1 -5.884921E-19 -8.973232E-17 -1.962000E-04
         2  5.611933E-17 -8.981098E-17 -1.962000E-04
         3  3.546113E-17  1.292498E-16 -1.962000E-04
         4 -2.126597E-17  1.292726E-16 -1.962000E-04
         5 -5.377987E-19 -1.464172E-16 -1.962000E-04
         6  5.607245E-17 -1.464254E-16 -1.962000E-04
         7  3.542206E-17  7.259831E-17 -1.962000E-04
         8 -2.123142E-17  7.254366E-17 -1.962000E-04
         9  2.776792E-17 -8.976938E-17 -1.962000E-04
        10  4.577085E-17  1.974579E-17 -1.962000E-04
        11  7.096969E-18  1.292586E-16 -1.962000E-04
        12 -1.088031E-17  1.972324E-17 -1.962000E-04
        13 -5.659634E-19 -1.181022E-16 -1.962000E-04
        14  5.609398E-17 -1.180983E-16 -1.962000E-04
        15  3.544384E-17  1.009070E-16 -1.962000E-04
        16 -2.124621E-17  1.009328E-16 -1.962000E-04
        17  2.776481E-17 -1.464263E-16 -1.962000E-04
        18  4.579423E-17 -3.694829E-17 -1.962000E-04
        19  7.095946E-18  7.257630E-17 -1.962000E-04
        20 -1.089973E-17 -3.693387E-17 -1.962000E-04
        21  2.169105E-17  1.837922E-17  1.962000E-04
        22 -1.596809E-18  1.834547E-17  1.962000E-04
        23 -3.762484E-17 -1.748760E-17  1.962000E-04
        24 -1.428942E-17 -1.749478E-17  1.962000E-04
        25  2.168089E-17  4.159274E-17  1.962000E-04
        26 -1.573846E-18  4.164006E-17  1.962000E-04
        27 -3.758106E-17  5.775289E-18  1.962000E-04
        28 -1.432253E-17  5.792831E-18  1.962000E-04
        29  1.006317E-17  1.836322E-17  1.962000E-04
        30 -1.959788E-17  4.202284E-19  1.962000E-04
        31 -2.597160E-17 -1.749066E-17  1.962000E-04
        32  3.679500E-18  4.137610E-19  1.962000E-04
        33  2.168683E-17  2.998319E-17  1.962000E-04
        34 -1.585518E-18  2.998117E-17  1.962000E-04
        35 -3.760417E-17 -5.844391E-18  1.962000E-04
        36 -1.430544E-17 -5.848357E-18  1.962000E-04
        37  1.006719E-17  4.161216E-17  1.962000E-04
        38 -1.961299E-17  2.371686E-17  1.962000E-04
        39 -2.596705E-17  5.786894E-18  1.962000E-04
        40  3.691897E-18  2.372448E-17  1.962000E-04

 stresses (elem, integ.pnt.,sxx,syy,szz,sxy,sxz,syz) for set EALL and time  0.2000000E-03

         1   1  4.498451E-15  9.753781E-15  1.281376E-14  3.142709E-15 -3.618115E-15 -3.735053E-15
         1   2  2.327533E-14  2.608851E-14  4.611549E-14 -6.286040E-16 -1.903168E-14 -1.990710E-15
         1   3  2.334953E-14  2.455616E-14  3.856297E-14 -4.936522E-15 -2.545475E-14 -4.592116E-15
         1   4  7.066762E-15  1.434209E-15  1.108838E-14  4.956541E-16 -1.926368E-14  2.699498E-15
         1   5  9.104439E-15  5.966512E-15  2.444350E-14  1.545678E-15 -1.213948E-14  3.203599E-15
         1   6 -3.455063E-15 -3.732261E-15  4.958880E-15  2.628600E-15 -5.329131E-15  7.302342E-16
         1   7 -2.590856E-15  1.895649E-15 -2.085620E-16 -3.559121E-15 -1.028013E-14  4.208226E-15
         1   8 -5.348846E-15 -3.070573E-15 -1.106392E-14 -1.851063E-15  4.057039E-15  1.009173E-15
         1   9 -5.052511E-15 -5.085857E-15 -1.513714E-14  4.593962E-16 -3.264861E-15  1.234669E-14
         1  10  2.080837E-14  2.290903E-14  5.865171E-14  5.335976E-16  9.833605E-16  3.763748E-15
         1  11  2.426707E-14  2.270140E-14  5.678100E-14 -3.883932E-17  8.013162E-17 -5.038740E-16
         1  12  9.433584E-15  5.037178E-15  1.501384E-14 -1.147881E-15 -8.243691E-16 -9.139435E-15
         1  13 -3.061393E-15 -6.654048E-15 -1.429876E-14 -9.496322E-16 -1.841437E-15 -1.353750E-15
         1  14  7.827195E-16 -3.153118E-16  2.986253E-15  1.903914E-16  8.952826E-15  2.227512E-15
         1  15  2.754693E-15  4.517390E-15  1.712329E-14  1.363313E-15 -2.967697E-15  3.356431E-15
         1  16 -3.390846E-14 -3.051409E-14 -7.624738E-14  9.792326E-16 -2.476980E-15 -1.276535E-14
         1  17  3.259449E-16  2.736262E-15 -1.927369E-15 -3.315864E-16 -1.877768E-15 -4.345434E-15
         1  18  5.186343E-15  6.509219E-15  3.508669E-15 -1.040004E-15 -1.963971E-15 -7.134873E-15
         1  19  1.134644E-14  1.752576E-14  3.712197E-14 -2.000028E-15  5.083874E-15 -3.487360E-15
         1  20  3.232578E-14  3.361459E-14  7.670273E-14  6.264108E-16  7.239981E-15 -1.529479E-15
         1  21 -4.393652E-15 -7.159746E-15 -1.556165E-14  2.716245E-15  2.024317E-14 -2.161259E-14
         1  22  1.997498E-15  9.908442E-16 -4.795559E-15 -2.362020E-15 -1.556972E-14 -2.916528E-15
         1  23  2.722223E-15  4.210192E-15  4.925755E-15 -1.131996E-15 -1.419832E-14  2.707008E-15
         1  24 -1.298588E-15  3.050109E-15  4.794502E-15  1.309253E-16 -1.196832E-14  5.308699E-15
         1  25 -2.549951E-14 -2.933842E-14 -5.344978E-14  5.507898E-15 -1.049957E-14  1.872588E-14
         1  26 -1.338259E-14 -1.698137E-14 -3.187743E-14  1.178203E-15 -1.374409E-14 -5.820678E-16
         1  27  1.985002E-14  1.638797E-14  3.862020E-14 -2.549091E-15 -1.558268E-14 -2.181723E-14
         2   1 -3.588160E-16  2.822103E-15 -2.107045E-15  9.351875E-18  1.073268E-14 -1.245146E-15
         2   2 -8.415363E-16  2.399467E-15 -3.801667E-15  2.332416E-15  5.960722E-15  1.773747E-15
         2   3 -1.212745E-14 -8.399901E-15 -2.928220E-14  4.241021E-15  5.086867E-15  6.387311E-15
         2   4 -1.193878E-14 -1.133854E-14 -2.121335E-14 -2.359859E-15  2.151729E-14 -2.673953E-15
         2   5 -3.875065E-15 -5.148601E-15 -9.822176E-15 -1.715069E-15  1.651561E-14 -3.160218E-15
         2   6  5.500001E-15  2.658878E-15  5.649448E-15 -1.206230E-15  6.791846E-15  1.053640E-14
         2   7  1.003763E-14  6.168312E-15  1.909193E-14  3.058580E-15  7.672780E-15 -6.976156E-15
         2   8  3.492934E-15  2.010431E-15  1.018910E-14  4.388864E-16  1.119840E-14 -7.054502E-16
         2   9  5.448309E-15  6.538539E-15  2.173950E-14 -2.038251E-15  1.766433E-14  3.328730E-15
         2  10  5.603673E-16  1.607350E-15  6.503152E-16 -6.176892E-16 -2.180935E-17 -3.467176E-15
         2  11 -1.160164E-14 -1.110350E-14 -2.673376E-14  8.355106E-16 -3.512414E-15 -1.061418E-15
         2  12 -1.112302E-15 -7.365408E-16  1.568547E-16  1.874252E-15 -5.901614E-15  4.712487E-16
         2  13 -2.401077E-15 -9.365030E-16 -1.001274E-15 -1.295342E-15  1.250545E-15  5.744262E-15
         2  14 -7.639101E-16 -1.173114E-15 -3.427138E-15 -7.867524E-16 -4.298373E-15 -4.735196E-16
         2  15  2.800333E-15  8.235421E-16 -3.358530E-16 -4.141138E-16 -1.767639E-15 -9.206334E-15
         2  16  1.267901E-14  9.499875E-15  2.372985E-14  2.717429E-15 -7.609816E-16 -9.542435E-17
         2  17  1.070730E-14  1.052390E-14  2.629158E-14  6.951984E-16 -1.253138E-15  2.577289E-15
         2  18 -2.262390E-15  7.358709E-16  3.811090E-15 -1.184476E-15  1.545365E-15 -1.643538E-15
         2  19 -1.147341E-15 -3.547563E-15 -1.408471E-15 -1.354726E-15  1.662897E-14  3.442039E-15
         2  20  4.566293E-15  1.008305E-15  1.447952E-14 -7.713910E-16 -1.620389E-14  2.508706E-15
         2  21 -7.706757E-15 -1.199605E-14 -1.017989E-14 -6.025144E-16 -1.488300E-14  4.665455E-15
         2  22  5.942082E-16  2.956904E-15  3.911364E-15 -3.667772E-16 -1.021959E-14 -3.524645E-15
         2  23  3.193558E-15  3.682476E-15  4.908841E-15  5.612266E-18 -2.723607E-14 -1.370005E-15
         2  24  3.615131E-15  2.536464E-15  1.845478E-15  2.420503E-16  1.713005E-14 -9.142786E-16
         2  25 -1.705315E-15 -2.813423E-15 -1.273974E-14  2.214370E-15 -2.587392E-15 -5.975992E-15
         2  26  8.959550E-16  3.392510E-15  1.286540E-15  7.896032E-16 -4.882114E-15 -4.290918E-15
         2  27 -2.145725E-14 -1.517011E-14 -4.229455E-14 -4.926078E-16  7.136789E-15 -5.399385E-15

 displacements (vx,vy,vz) for set NALL and time  0.3500000E-03

         1 -1.132318E-18 -1.796154E-16 -6.008625E-04
         2  1.122217E-16 -1.796291E-16 -6.008625E-04
         3  7.089779E-17  2.586554E-16 -6.008625E-04
         4 -4.244700E-17  2.586586E-16 -6.008625E-04
         5 -1.072302E-18 -2.930784E-16 -6.008625E-04
         6  1.123015E-16 -2.930928E-16 -6.008625E-04
         7  7.088809E-17  1.453146E-16 -6.008625E-04
         8 -4.242351E-17  1.451736E-16 -6.008625E-04
         9  5.554936E-17 -1.796183E-16 -6.008625E-04
        10  9.162073E-17  3.947963E-17 -6.008625E-04
        11  1.422174E-17  2.586596E-16 -6.008625E-04
        12 -2.181044E-17  3.947820E-17 -6.008625E-04
        13 -1.098379E-18 -2.363747E-16 -6.008625E-04
        14  1.122600E-16 -2.363237E-16 -6.008625E-04
        15  7.088789E-17  2.019506E-16 -6.008625E-04
        16 -4.243256E-17  2.019411E-16 -6.008625E-04
        17  5.557099E-17 -2.930783E-16 -6.008625E-04
        18  9.160421E-17 -7.391185E-17 -6.008625E-04
        19  1.427489E-17  1.452302E-16 -6.008625E-04
        20 -2.183030E-17 -7.387742E-17 -6.008625E-04
        21  4.333494E-17  3.671269E-17  6.008625E-04
        22 -3.262438E-18  3.671207E-17  6.008625E-04
        23 -7.519567E-17 -3.506360E-17  6.008625E-04
        24 -2.856041E-17 -3.498456E-17  6.008625E-04
        25  4.333729E-17  8.324987E-17  6.008625E-04
        26 -3.136519E-18  8.338105E-17  6.008625E-04
        27 -7.522029E-17  1.162075E-17  6.008625E-04
        28 -2.866510E-17  1.161817E-17  6.008625E-04
        29  2.009577E-17  3.671561E-17  6.008625E-04
        30 -3.922296E-17  8.656592E-19  6.008625E-04
        31 -5.193406E-17 -3.503148E-17  6.008625E-04
        32  7.374622E-18  8.374730E-19  6.008625E-04
        33  4.333031E-17  6.003190E-17  6.008625E-04
        34 -3.204089E-18  6.001127E-17  6.008625E-04
        35 -7.519920E-17 -1.169441E-17  6.008625E-04
        36 -2.861112E-17 -1.172554E-17  6.008625E-04
        37  2.005981E-17  8.331146E-17  6.008625E-04
        38 -3.924479E-17  4.742473E-17  6.008625E-04
        39 -5.190562E-17  1.162763E-17  6.008625E-04
        40  7.403707E-18  4.744990E-17  6.008625E-04

 stresses (elem, integ.pnt.,sxx,syy,szz,sxy,sxz,syz) for set EALL and time  0.3500000E-03

         1   1 -6.955175E-14 -6.842473E-14 -1.438500E-13  7.015002E-15 -1.652131E-14 -8.416411E-15
         1   2 -1.078533E-14 -1.133032E-14 -2.086485E-14  2.753276E-15  6.774676E-14  4.977013E-15
         1   3  3.972820E-14  4.480733E-14  1.071840E-13 -1.407120E-15  8.857351E-14 -1.808291E-15
         1   4 -1.382802E-14 -1.679823E-14 -3.764818E-14 -5.207552E-15  3.405307E-14 -5.483870E-15
         1   5  3.969259E-15  1.109198E-15 -1.322494E-15 -3.934999E-15  3.013392E-15  2.383821E-15
         1   6  1.608407E-14  1.353197E-14  2.240346E-14 -3.304964E-15 -9.644229E-15 -3.647192E-14
         1   7 -4.463020E-14 -4.041594E-14 -9.381858E-14  9.020231E-16  2.989609E-14  5.384718E-15
         1   8 -2.379455E-14 -1.844058E-14 -4.397688E-14  3.671228E-15  5.649976E-14 -6.229820E-15
         1   9  4.852360E-14  4.811675E-14  1.029889E-13  5.054063E-15  4.063660E-15 -8.741809E-15
         1  10  2.874515E-15 -9.997891E-16  2.333066E-14  6.356218E-15  3.669475E-15  6.345780E-15
         1  11 -3.703696E-14 -4.126325E-14 -8.041067E-14  3.387225E-15 -3.639080E-15  1.447487E-14
         1  12  2.850307E-14  3.122093E-14  8.622194E-14  5.195623E-16  1.154765E-14 -2.884876E-14
         1  13 -1.898659E-14 -1.998285E-14 -5.722732E-14 -5.161091E-15 -1.193356E-15  1.443391E-15
         1  14 -1.261161E-14 -1.349772E-14 -4.198517E-14 -3.718267E-15  8.263925E-15  8.358035E-15
         1  15  4.910789E-15  4.332639E-15 -7.300233E-17 -2.917963E-15 -2.473971E-15 -1.151974E-15
         1  16 -2.074784E-15  3.013439E-15  2.815964E-16  2.030032E-15 -3.866933E-15  1.186578E-14
         1  17 -5.318051E-14 -4.827260E-14 -1.101248E-13  3.847043E-15  8.126031E-15  5.525080E-15
         1  18 -1.011328E-14 -1.228621E-14 -2.379603E-14  4.277685E-15 -7.618230E-17  2.737610E-16
         1  19 -4.207552E-14 -4.106954E-14 -9.324825E-14  5.138752E-15 -1.102396E-14 -3.738175E-14
         1  20 -5.139459E-17  1.922620E-15 -2.284663E-15  3.462492E-15  1.605682E-14  1.667629E-14
         1  21 -1.061258E-14 -3.743898E-16 -9.699660E-15  1.887563E-15 -1.016167E-14  3.261367E-14
         1  22  1.894906E-14  2.046510E-14  2.320837E-14 -5.757148E-15 -2.753892E-14 -1.180712E-14
         1  23 -5.801554E-15 -4.175364E-15 -2.860735E-14 -4.144055E-15 -8.150397E-15 -7.926521E-17
         1  24 -5.858732E-15 -3.924582E-15 -2.214570E-14 -3.173481E-15 -2.892563E-14 -4.032215E-15
         1  25 -1.209740E-14 -1.494012E-14 -1.949538E-14  2.431684E-15 -1.121506E-14  1.458848E-14
         1  26 -6.946687E-14 -7.380993E-14 -1.369021E-13  3.296501E-15 -9.370447E-15  1.162548E-14
         1  27 -4.949329E-14 -6.223720E-14 -9.684333E-14  2.774948E-15 -1.922928E-14 -4.829063E-15
         2   1  2.431021E-14  2.120264E-14  4.780622E-14 -1.591036E-14 -1.915344E-14 -2.560311E-14
         2   2  1.316433E-14  7.183524E-15  8.950386E-15 -1.569968E-15 -3.138199E-14  3.065575E-15
         2   3  1.075125E-14  1.707946E-14  4.107857E-14  1.231846E-14  2.705069E-14  1.637005E-14
         2   4  9.835090E-17  5.964218E-16  1.159255E-14 -1.660058E-15 -4.018872E-14 -2.126540E-15
         2   5  9.171367E-15  6.145089E-15  2.451715E-14  9.479043E-16  1.092369E-14 -4.298950E-15
         2   6  1.458784E-15 -4.413465E-15  5.366109E-16  3.959951E-15 -6.593978E-15 -1.311307E-15
         2   7 -5.313627E-15 -3.743085E-15 -3.117732E-14  1.510557E-14 -1.306041E-14 -1.230976E-14
         2   8  4.167642E-14  5.053807E-14  1.130453E-13 -2.749749E-17 -1.025900E-14  5.850560E-15
         2   9 -9.053053E-15 -6.725767E-15 -1.682928E-14 -1.390043E-14 -2.464021E-14  2.479242E-14
         2  10  2.944948E-14  3.236858E-14  6.408191E-14 -2.094004E-15  5.968295E-15  5.642511E-15
         2  11  2.318330E-14  2.196418E-14  3.631249E-14 -1.974954E-15 -1.316120E-14 -2.623138E-15
         2  12 -6.367916E-15  3.456980E-15  4.818781E-15 -2.307873E-15 -1.841328E-14  1.202388E-14
         2  13 -5.384935E-15 -7.469924E-16 -1.839578E-15  8.714287E-16 -5.852488E-15 -1.128713E-14
         2  14  7.826799E-16  1.896273E-15  8.036860E-16  2.338443E-15  3.071843E-16 -5.252347E-15
         2  15  1.561478E-14  1.388240E-14  2.592534E-14  4.209541E-15 -4.536495E-16  5.086438E-15
         2  16  7.136796E-14  6.317437E-14  1.542039E-13  6.188999E-16  8.597782E-15  2.979847E-14
         2  17  1.736075E-14  1.772326E-14  5.606169E-14 -2.574725E-15  7.207803E-15 -2.408420E-15
         2  18  1.053530E-14  5.628437E-15  2.192531E-14 -4.508211E-15  7.654335E-15  5.288036E-14
         2  19  4.434670E-14  4.003202E-14  1.163866E-13  1.190288E-14  5.219696E-14 -2.147480E-14
         2  20  1.012141E-14  4.035175E-16  2.307969E-14 -2.199415E-15 -2.222063E-14 -4.089048E-15
         2  21 -3.712679E-14 -3.706565E-14 -5.000653E-14 -1.675368E-14 -2.406146E-14 -7.063488E-15
         2  22 -8.786978E-15 -1.612681E-15 -8.811959E-15  3.806999E-15  2.769813E-14 -2.845780E-14
         2  23 -1.209253E-14 -8.442579E-15 -3.177481E-14  4.133065E-15 -1.569701E-14  4.037508E-15
         2  24  2.446537E-16  1.048631E-15 -1.597669E-14  4.863215E-15  9.927082E-15 -5.993576E-15
         2  25 -4.472718E-14 -5.263148E-14 -1.202806E-13 -1.324013E-14  2.509185E-14 -2.148431E-14
         2  26  1.043679E-14  1.235357E-14  2.960535E-14 -4.494308E-15  1.772892E-15  6.143615E-15
         2  27  1.631849E-14  1.423089E-14  1.841441E-14  5.511653E-15 -7.258196E-15  1.970545E-14

 displacements (vx,vy,vz) for set NALL and time  0.5750000E-03

         1 -2.081397E-18 -3.142449E-16 -1.621716E-03
         2  1.966160E-16 -3.145415E-16 -1.621716E-03
         3  1.242038E-16  4.522850E-16 -1.621716E-03
         4 -7.453791E-17  4.531161E-16 -1.621716E-03
         5 -2.077397E-18 -5.132242E-16 -1.621716E-03
         6  1.963018E-16 -5.126179E-16 -1.621716E-03
         7  1.242656E-16  2.544542E-16 -1.621716E-03
         8 -7.423646E-17  2.539685E-16 -1.621716E-03
         9  9.707609E-17 -3.144171E-16 -1.621716E-03
        10  1.602874E-16  6.925394E-17 -1.621716E-03
        11  2.502207E-17  4.527193E-16 -1.621716E-03
        12 -3.808044E-17  6.898182E-17 -1.621716E-03
        13 -2.116236E-18 -4.136290E-16 -1.621716E-03
        14  1.964905E-16 -4.137100E-16 -1.621716E-03
        15  1.242083E-16  3.535097E-16 -1.621716E-03
        16 -7.435551E-17  3.534269E-16 -1.621716E-03
        17  9.717565E-17 -5.129113E-16 -1.621716E-03
        18  1.603484E-16 -1.295072E-16 -1.621716E-03
        19  2.495326E-17  2.542068E-16 -1.621716E-03
        20 -3.815891E-17 -1.292244E-16 -1.621716E-03
        21  7.546305E-17  6.441942E-17  1.621716E-03
        22 -5.793299E-18  6.420089E-17  1.621716E-03
        23 -1.313704E-16 -6.124996E-17  1.621716E-03
        24 -4.988090E-17 -6.116371E-17  1.621716E-03
        25  7.567481E-17  1.455524E-16  1.621716E-03
        26 -5.546534E-18  1.454968E-16  1.621716E-03
        27 -1.317450E-16  2.038101E-17  1.621716E-03
        28 -4.977585E-17  2.058756E-17  1.621716E-03
        29  3.502496E-17  6.430493E-17  1.621716E-03
        30 -6.870320E-17  1.469471E-18  1.621716E-03
        31 -9.078436E-17 -6.119935E-17  1.621716E-03
        32  1.296066E-17  1.427303E-18  1.621716E-03
        33  7.559500E-17  1.050507E-16  1.621716E-03
        34 -5.694305E-18  1.049407E-16  1.621716E-03
        35 -1.315356E-16 -2.049224E-17  1.621716E-03
        36 -4.985219E-17 -2.038688E-17  1.621716E-03
        37  3.494982E-17  1.455550E-16  1.621716E-03
        38 -6.863986E-17  8.309258E-17  1.621716E-03
        39 -9.067749E-17  2.045170E-17  1.621716E-03
        40  1.291285E-17  8.306107E-17  1.621716E-03

 stresses (elem, integ.pnt.,sxx,syy,szz,sxy,sxz,syz) for set EALL and time  0.5750000E-03

         1   1  5.188868E-15  1.312316E-14 -4.004288E-14  2.010180E-14  5.507356E-14  5.147138E-14
         1   2  7.446197E-14  9.516391E-14  1.988814E-13 -4.141904E-15 -5.940397E-14  7.339013E-15
         1   3 -5.354129E-14 -5.840092E-14 -1.502699E-13 -2.575377E-14 -1.056164E-13  4.617486E-14
         1   4  7.270033E-15 -3.721941E-14  1.378343E-14 -8.450941E-15  8.288003E-14 -2.192360E-14
         1   5  4.825444E-14  1.269450E-14  1.435100E-13  7.504556E-15 -5.899352E-14  2.325924E-14
         1   6  2.263483E-14 -4.404497E-15  1.164643E-13  2.395982E-14 -9.210073E-14 -3.139244E-14
         1   7 -9.018153E-14 -2.574198E-14 -1.713865E-13 -1.629470E-15  1.457146E-13  1.414413E-14
         1   8  5.629518E-14  9.441591E-14  5.659745E-14 -7.965340E-15  8.590772E-14 -2.102502E-14
         1   9  2.060884E-13  2.554017E-13  4.173581E-13 -1.593351E-14 -4.903017E-14 -3.343046E-14
         1  10 -7.164415E-14 -5.770582E-14 -1.754145E-13  1.784886E-14  8.098295E-15  6.442539E-14
         1  11 -2.602156E-14 -4.552539E-15 -3.194048E-14 -4.725319E-15 -3.152167E-14  1.147382E-14
         1  12 -1.103558E-13 -1.196853E-13 -3.194630E-13 -2.466767E-14  8.421258E-15 -1.107199E-13
         1  13 -9.309159E-15 -2.003029E-14 -5.433833E-14 -1.421646E-14  1.871511E-14 -7.824690E-14
         1  14 -1.180025E-14 -1.359188E-14 -3.038589E-14  2.892144E-15  3.232121E-14  6.377160E-15
         1  15  1.926303E-14  2.599201E-14  7.049713E-14  2.050052E-14  1.821674E-14  1.956981E-14
         1  16 -3.515853E-14 -3.416750E-14 -2.079781E-14  4.797519E-15 -4.948124E-14 -7.204988E-14
         1  17 -5.706651E-14 -7.715736E-14 -1.541084E-13 -9.016487E-16 -1.631102E-16 -1.404428E-14
         1  18  2.942625E-14  2.576493E-14  9.055415E-14 -8.233115E-15  3.457998E-14  2.507201E-14
         1  19 -2.535330E-13 -2.685808E-13 -5.209260E-13  2.084624E-14 -1.229491E-13  1.132616E-14
         1  20  1.801411E-14  5.260061E-15  1.094394E-13 -5.842612E-17 -7.858250E-14  3.510123E-14
         1  21  3.153302E-14 -1.725649E-14  9.975018E-15 -1.833126E-14  7.415883E-14 -2.027469E-14
         1  22  2.807675E-14  5.302126E-14  1.561158E-15 -1.948221E-14 -1.568077E-14 -9.225534E-14
         1  23 -1.788985E-14  1.598417E-14 -8.026056E-14 -1.220500E-15 -6.952693E-14  1.336618E-14
         1  24  1.567228E-14  5.806690E-14  2.212175E-14  1.754098E-14  3.207056E-14  5.844537E-14
         1  25 -5.613111E-14 -7.980379E-14 -8.631696E-14  6.973737E-15 -9.230976E-14  1.292674E-13
         1  26 -5.595866E-14 -9.547628E-14 -1.365035E-13  1.911272E-15 -9.549944E-14  3.432159E-14
         1  27 -2.619863E-14 -4.404977E-14  7.385790E-15 -4.783492E-15 -3.081562E-14 -9.489554E-14
         2   1  1.863550E-13  2.163083E-13  4.623227E-13 -3.529568E-14 -3.804852E-14  6.486231E-15
         2   2  3.814707E-14  4.341759E-14  3.585352E-14 -1.219437E-14 -1.436836E-14 -4.326751E-15
         2   3 -1.497580E-13 -1.220917E-13 -3.263135E-13  1.352700E-14 -1.084340E-13 -8.977933E-15
         2   4 -2.045058E-14 -3.699550E-14 -6.277031E-14  1.917196E-15  9.009959E-14  1.195202E-14
         2   5 -6.501017E-15 -1.913406E-14 -1.907465E-14  2.103977E-15  3.324928E-14 -6.422872E-15
         2   6  3.368113E-15  7.316346E-16  3.538229E-14  2.072346E-15  4.802365E-14  1.280441E-13
         2   7 -4.653342E-14 -3.986999E-14 -9.422576E-14  3.279995E-14 -9.434767E-15  6.448678E-14
         2   8  1.575887E-14  2.989372E-14  7.061639E-14  8.871686E-15 -4.173133E-14 -3.045857E-15
         2   9  2.393008E-13  2.259978E-13  4.953434E-13 -1.811346E-14 -8.121636E-14 -5.347042E-14
         2  10  4.430842E-14  5.085217E-14  1.196212E-13 -8.878708E-16  2.420858E-14  9.078265E-15
         2  11 -1.199682E-13 -1.251923E-13 -3.239988E-13  1.446378E-15 -2.134074E-14 -2.722631E-14
         2  12 -8.421857E-14 -5.413193E-14 -1.439623E-13  6.400683E-15 -2.670864E-14 -1.512405E-14
         2  13  3.121012E-14  1.203390E-14  5.850970E-14 -1.706610E-15  3.734657E-14  6.090344E-14
         2  14 -1.504225E-14 -3.030659E-14 -3.637290E-14 -1.263928E-15 -3.119468E-14 -1.897987E-14
         2  15 -3.253624E-14 -3.780401E-14 -4.387032E-14 -1.039660E-15 -3.766196E-14 -3.513155E-14
         2  16  6.567847E-14  8.808794E-14  1.827394E-13  3.662130E-15  6.699467E-15  1.171071E-13
         2  17 -8.144861E-14 -6.448271E-14 -1.576206E-13  1.012734E-15 -1.915607E-14 -6.354916E-15
         2  18  3.277416E-15 -2.010954E-14 -7.335437E-14 -4.693543E-15  3.457639E-14 -9.235637E-14
         2  19 -9.357971E-14 -1.049011E-13 -2.189220E-13  2.968250E-14  1.165186E-13 -8.099657E-14
         2  20 -2.434999E-14 -3.452425E-14 -9.735113E-14  1.124969E-14  2.439185E-14  1.321297E-14
         2  21  7.742794E-14  1.154794E-13  2.570944E-13 -4.563072E-15  4.389820E-14  1.089315E-14
         2  22  6.154712E-14  4.633610E-14  1.234379E-13 -5.548828E-15  5.843157E-14  5.549993E-14