    1C
    1UUSER                                                              
    1UDATE              24.november.2019                                
    1UTIME              19:36:37                                        
    1UHOST                                                              
    1UPGM               CalculiX                                        
    1UVERSION           Version 2.16                             
    1UCOMPILETIME       So 24. Nov 18:30:58 CET 2019                    
    1UDIR                                                               
    1UDBN                                                               
    1UMAT    1EL                                                        
    2C                             8                                     1
 -1         1 0.00000E+00 0.00000E+00 0.00000E+00
 -1         2 1.00000E+00 0.00000E+00 0.00000E+00
 -1         3 1.00000E+00 1.00000E+00 0.00000E+00
 -1         4 0.00000E+00 1.00000E+00 0.00000E+00
 -1         5 0.00000E+00 0.00000E+00 1.00000E+00
 -1         6 1.00000E+00 0.00000E+00 1.00000E+00
 -1         7 1.00000E+00 1.00000E+00 1.00000E+00
 -1         8 0.00000E+00 1.00000E+00 1.00000E+00
 -3
    3C                             1                                     1
 -1         1    1    0    1
 -2         1         2         3         4         5         6         7         8
 -3
    1PSTEP                         1           1           1          
  100CL  101 1.000000000           8                     1    1           1
 -4  DISP        4    1
 -5  D1          1    2    1    0
 -5  D2          1    2    2    0
 -5  D3          1    2    3    0
 -5  ALL         1    2    0    0    1ALL
 -1         1 5.00000E-01 2.03717E-15 7.34716E-16
 -1         2 5.00000E-01 2.03717E-15 7.34716E-16
 -1         3 5.00000E-01 2.03717E-15 7.34716E-16
 -1         4 5.00000E-01 2.03717E-15 7.34716E-16
 -1         5 5.00000E-01 2.03717E-15 7.34716E-16
 -1         6 5.00000E-01 2.03717E-15 7.34716E-16
 -1         7 5.00000E-01 2.03717E-15 7.34716E-16
 -1         8 5.00000E-01 2.03717E-15 7.34716E-16
 -3
    1PSTEP                         2           1           1          
  100CL  101 1.000000000           8                     1    1           1
 -4  VELO        4    1
 -5  V1          1    2    1    0
 -5  V2          1    2    2    0
 -5  V3          1    2    3    0
 -5  ALL         1    2    0    0    1ALL
 -1         1 1.00000E+00 4.08568E-15 1.47353E-15
 -1         2 1.00000E+00 4.08568E-15 1.47353E-15
 -1         3 1.00000E+00 4.08568E-15 1.47353E-15
 -1         4 1.00000E+00 4.08568E-15 1.47353E-15
 -1         5 1.00000E+00 4.08568E-15 1.47353E-15
 -1         6 1.00000E+00 4.08568E-15 1.47353E-15
 -1         7 1.00000E+00 4.08568E-15 1.47353E-15
 -1         8 1.00000E+00 4.08568E-15 1.47353E-15
 -3
    1PSTEP                         3           2           1          
  100CL  102 2.000000000           8                     1    2           1
 -4  DISP        4    1
 -5  D1          1    2    1    0
 -5  D2          1    2    2    0
 -5  D3          1    2    3    0
 -5  ALL         1    2    0    0    1ALL
 -1         1 2.00000E+00 6.12285E-15 2.20824E-15
 -1         2 2.00000E+00 6.12285E-15 2.20824E-15
 -1         3 2.00000E+00 6.12285E-15 2.20824E-15
 -1         4 2.00000E+00 6.12285E-15 2.20824E-15
 -1         5 2.00000E+00 6.12285E-15 2.20824E-15
 -1         6 2.00000E+00 6.12285E-15 2.20824E-15
 -1         7 2.00000E+00 6.12285E-15 2.20824E-15
 -1         8 2.00000E+00 6.12285E-15 2.20824E-15
 -3
    1PSTEP                         4           2           1          
  100CL  102 2.000000000           8                     1    2           1
 -4  VELO        4    1
 -5  V1          1    2    1    0
 -5  V2          1    2    2    0
 -5  V3          1    2    3    0
 -5  ALL         1    2    0    0    1ALL
 -1         1 2.00000E+00 4.08568E-15 1.47353E-15
 -1         2 2.00000E+00 4.08568E-15 1.47353E-15
 -1         3 2.00000E+00 4.08568E-15 1.47353E-15
 -1         4 2.00000E+00 4.08568E-15 1.47353E-15
 -1         5 2.00000E+00 4.08568E-15 1.47353E-15
 -1         6 2.00000E+00 4.08568E-15 1.47353E-15
 -1         7 2.00000E+00 4.08568E-15 1.47353E-15
 -1         8 2.00000E+00 4.08568E-15 1.47353E-15
 -3
    1PSTEP                         5           3           1          
  100CL  103 3.000000000           8                     1    3           1
 -4  DISP        4    1
 -5  D1          1    2    1    0
 -5  D2          1    2    2    0
 -5  D3          1    2    3    0
 -5  ALL         1    2    0    0    1ALL
 -1         1 4.50000E+00 1.02085E-14 3.68177E-15
 -1         2 4.50000E+00 1.02085E-14 3.68177E-15
 -1         3 4.50000E+00 1.02085E-14 3.68177E-15
 -1         4 4.50000E+00 1.02085E-14 3.68177E-15
 -1         5 4.50000E+00 1.02085E-14 3.68177E-15
 -1         6 4.50000E+00 1.02085E-14 3.68177E-15
 -1         7 4.50000E+00 1.02085E-14 3.68177E-15
 -1         8 4.50000E+00 1.02085E-14 3.68177E-15
 -3
    1PSTEP                         6           3           1          
  100CL  103 3.000000000           8                     1    3           1
 -4  VELO        4    1
 -5  V1          1    2    1    0
 -5  V2          1    2    2    0
 -5  V3          1    2    3    0
 -5  ALL         1    2    0    0    1ALL
 -1         1 3.00000E+00 4.08568E-15 1.47353E-15
 -1         2 3.00000E+00 4.08568E-15 1.47353E-15
 -1         3 3.00000E+00 4.08568E-15 1.47353E-15
 -1         4 3.00000E+00 4.08568E-15 1.47353E-15
 -1         5 3.00000E+00 4.08568E-15 1.47353E-15
 -1         6 3.00000E+00 4.08568E-15 1.47353E-15
 -1         7 3.00000E+00 4.08568E-15 1.47353E-15
 -1         8 3.00000E+00 4.08568E-15 1.47353E-15
 -3
 9999
