
 displacements (vx,vy,vz) for set N2 and time  0.1000000E-07

        15 -1.210465E-09  5.459901E-09  9.020335E-08

 displacements (vx,vy,vz) for set N2 and time  0.2000000E-07

        15 -7.381315E-09  3.533813E-08  3.394633E-07

 displacements (vx,vy,vz) for set N2 and time  0.3000000E-07

        15 -2.077896E-08  1.096766E-07  6.918538E-07

 displacements (vx,vy,vz) for set N2 and time  0.4000000E-07

        15 -3.562825E-08  2.202907E-07  1.074858E-06

 displacements (vx,vy,vz) for set N2 and time  0.5000000E-07

        15 -4.064401E-08  3.254302E-07  1.417193E-06

 displacements (vx,vy,vz) for set N2 and time  0.6000000E-07

        15 -3.140013E-08  3.822155E-07  1.661279E-06

 displacements (vx,vy,vz) for set N2 and time  0.7000000E-07

        15 -1.839589E-08  3.821635E-07  1.770240E-06

 displacements (vx,vy,vz) for set N2 and time  0.8000000E-07

        15 -1.939478E-08  3.510977E-07  1.731953E-06

 displacements (vx,vy,vz) for set N2 and time  0.9000000E-07

        15 -4.239655E-08  3.154388E-07  1.560159E-06

 displacements (vx,vy,vz) for set N2 and time  0.1000000E-06

        15 -7.780296E-08  2.746250E-07  1.290649E-06

 displacements (vx,vy,vz) for set N2 and time  0.1100000E-06

        15 -1.094979E-07  2.107171E-07  9.728696E-07

 displacements (vx,vy,vz) for set N2 and time  0.1200000E-06

        15 -1.334784E-07  1.218811E-07  6.612180E-07

 displacements (vx,vy,vz) for set N2 and time  0.1300000E-06

        15 -1.633169E-07  3.834646E-08  4.098408E-07

 displacements (vx,vy,vz) for set N2 and time  0.1400000E-06

        15 -2.156466E-07  7.180879E-11  2.691468E-07

 displacements (vx,vy,vz) for set N2 and time  0.1500000E-06

        15 -2.910197E-07  2.027535E-08  2.781342E-07

 displacements (vx,vy,vz) for set N2 and time  0.1600000E-06

        15 -3.708308E-07  7.581059E-08  4.504813E-07

 displacements (vx,vy,vz) for set N2 and time  0.1700000E-06

        15 -4.332044E-07  1.346632E-07  7.617466E-07

 displacements (vx,vy,vz) for set N2 and time  0.1800000E-06

        15 -4.699704E-07  1.884000E-07  1.149669E-06

 displacements (vx,vy,vz) for set N2 and time  0.1900000E-06

        15 -4.867989E-07  2.523943E-07  1.532363E-06

 displacements (vx,vy,vz) for set N2 and time  0.2000000E-06

        15 -4.889831E-07  3.347345E-07  1.835344E-06

 displacements (vx,vy,vz) for set N2 and time  0.2100000E-06

        15 -4.722687E-07  3.906415E-07  1.919045E-06

 displacements (vx,vy,vz) for set N2 and time  0.2200000E-06

        15 -4.322803E-07  3.158164E-07  1.791314E-06

 displacements (vx,vy,vz) for set N2 and time  0.2300000E-06

        15 -3.830264E-07  6.083463E-08  1.714918E-06

 displacements (vx,vy,vz) for set N2 and time  0.2400000E-06

        15 -3.593681E-07 -2.321670E-07  1.911658E-06

 displacements (vx,vy,vz) for set N2 and time  0.2500000E-06

        15 -3.897831E-07 -3.034145E-07  2.439699E-06

 displacements (vx,vy,vz) for set N2 and time  0.2600000E-06

        15 -4.610773E-07 -4.073232E-08  3.223318E-06

 displacements (vx,vy,vz) for set N2 and time  0.2700000E-06

        15 -5.177499E-07  3.707432E-07  4.133072E-06

 displacements (vx,vy,vz) for set N2 and time  0.2800000E-06

        15 -5.082661E-07  6.106437E-07  5.016596E-06

 displacements (vx,vy,vz) for set N2 and time  0.2900000E-06

        15 -4.360367E-07  5.252608E-07  5.715565E-06

 displacements (vx,vy,vz) for set N2 and time  0.3000000E-06

        15 -3.607463E-07  2.348271E-07  6.151071E-06

 displacements (vx,vy,vz) for set N2 and time  0.3100000E-06

        15 -3.459354E-07 -4.319607E-08  6.438342E-06

 displacements (vx,vy,vz) for set N2 and time  0.3200000E-06

        15 -4.054439E-07 -2.093810E-07  6.878727E-06

 displacements (vx,vy,vz) for set N2 and time  0.3300000E-06

        15 -4.992568E-07 -2.863249E-07  7.763086E-06

 displacements (vx,vy,vz) for set N2 and time  0.3400000E-06

        15 -5.737901E-07 -2.688408E-07  9.135866E-06

 displacements (vx,vy,vz) for set N2 and time  0.3500000E-06

        15 -5.998267E-07 -7.794225E-08  1.074930E-05

 displacements (vx,vy,vz) for set N2 and time  0.3600000E-06

        15 -5.774559E-07  2.919288E-07  1.226079E-05

 displacements (vx,vy,vz) for set N2 and time  0.3700000E-06

        15 -5.217224E-07  6.428658E-07  1.348364E-05

 displacements (vx,vy,vz) for set N2 and time  0.3800000E-06

        15 -4.563227E-07  6.880521E-07  1.446843E-05

 displacements (vx,vy,vz) for set N2 and time  0.3900000E-06

        15 -4.153036E-07  3.321321E-07  1.539320E-05

 displacements (vx,vy,vz) for set N2 and time  0.4000000E-06

        15 -4.308401E-07 -1.980110E-07  1.642540E-05
