
 displacements (vx,vy,vz) for set N2 and time  0.1000000E-07

        11 -4.951139E-09  1.246924E-11  9.042772E-08

 displacements (vx,vy,vz) for set N2 and time  0.2000000E-07

        11 -3.244762E-08  2.235990E-11  3.418401E-07

 displacements (vx,vy,vz) for set N2 and time  0.3000000E-07

        11 -1.027407E-07  4.941287E-12  7.032540E-07

 displacements (vx,vy,vz) for set N2 and time  0.4000000E-07

        11 -2.121417E-07 -1.940161E-11  1.109325E-06

 displacements (vx,vy,vz) for set N2 and time  0.5000000E-07

        11 -3.243568E-07 -2.065140E-11  1.491278E-06

 displacements (vx,vy,vz) for set N2 and time  0.6000000E-07

        11 -3.953961E-07  7.069270E-12  1.779659E-06

 displacements (vx,vy,vz) for set N2 and time  0.7000000E-07

        11 -4.072971E-07  3.736826E-11  1.909098E-06

 displacements (vx,vy,vz) for set N2 and time  0.8000000E-07

        11 -3.769578E-07  3.890439E-11  1.835617E-06

 displacements (vx,vy,vz) for set N2 and time  0.9000000E-07

        11 -3.337940E-07  9.118479E-12  1.561576E-06

 displacements (vx,vy,vz) for set N2 and time  0.1000000E-06

        11 -2.925577E-07 -2.202005E-11  1.148646E-06

 displacements (vx,vy,vz) for set N2 and time  0.1100000E-06

        11 -2.501320E-07 -2.269957E-11  7.025954E-07

 displacements (vx,vy,vz) for set N2 and time  0.1200000E-06

        11 -2.064048E-07  7.976848E-12  3.345714E-07

 displacements (vx,vy,vz) for set N2 and time  0.1300000E-06

        11 -1.821874E-07  3.968684E-11  1.227699E-07

 displacements (vx,vy,vz) for set N2 and time  0.1400000E-06

        11 -2.110577E-07  4.298635E-11  9.721116E-08

 displacements (vx,vy,vz) for set N2 and time  0.1500000E-06

        11 -3.113566E-07  1.968188E-11  2.499988E-07

 displacements (vx,vy,vz) for set N2 and time  0.1600000E-06

        11 -4.666162E-07 -1.997844E-14  5.535163E-07

 displacements (vx,vy,vz) for set N2 and time  0.1700000E-06

        11 -6.341936E-07  1.075242E-11  9.678567E-07

 displacements (vx,vy,vz) for set N2 and time  0.1800000E-06

        11 -7.732817E-07  4.947818E-11  1.435381E-06

 displacements (vx,vy,vz) for set N2 and time  0.1900000E-06

        11 -8.656319E-07  9.105369E-11  1.876602E-06

 displacements (vx,vy,vz) for set N2 and time  0.2000000E-06

        11 -9.126127E-07  1.186005E-10  2.201492E-06

 displacements (vx,vy,vz) for set N2 and time  0.2100000E-06

        11 -8.965882E-07 -1.166001E-08  2.160110E-06

 displacements (vx,vy,vz) for set N2 and time  0.2200000E-06

        11 -7.555676E-07 -7.332056E-08  1.792121E-06

 displacements (vx,vy,vz) for set N2 and time  0.2300000E-06

        11 -4.836439E-07 -2.159522E-07  1.611690E-06

 displacements (vx,vy,vz) for set N2 and time  0.2400000E-06

        11 -2.697176E-07 -4.020305E-07  1.948318E-06

 displacements (vx,vy,vz) for set N2 and time  0.2500000E-06

        11 -4.135084E-07 -5.388334E-07  2.724127E-06

 displacements (vx,vy,vz) for set N2 and time  0.2600000E-06

        11 -1.025056E-06 -5.823331E-07  3.655466E-06

 displacements (vx,vy,vz) for set N2 and time  0.2700000E-06

        11 -1.848199E-06 -6.120863E-07  4.557828E-06

 displacements (vx,vy,vz) for set N2 and time  0.2800000E-06

        11 -2.453082E-06 -7.752225E-07  5.400223E-06

 displacements (vx,vy,vz) for set N2 and time  0.2900000E-06

        11 -2.624540E-06 -1.146468E-06  6.153616E-06

 displacements (vx,vy,vz) for set N2 and time  0.3000000E-06

        11 -2.540960E-06 -1.652677E-06  6.742330E-06

 displacements (vx,vy,vz) for set N2 and time  0.3100000E-06

        11 -2.574387E-06 -2.142503E-06  7.203019E-06

 displacements (vx,vy,vz) for set N2 and time  0.3200000E-06

        11 -2.955456E-06 -2.525892E-06  7.796364E-06

 displacements (vx,vy,vz) for set N2 and time  0.3300000E-06

        11 -3.648078E-06 -2.843283E-06  8.821697E-06

 displacements (vx,vy,vz) for set N2 and time  0.3400000E-06

        11 -4.487920E-06 -3.212413E-06  1.027629E-05

 displacements (vx,vy,vz) for set N2 and time  0.3500000E-06

        11 -5.348570E-06 -3.725874E-06  1.176531E-05

 displacements (vx,vy,vz) for set N2 and time  0.3600000E-06

        11 -6.151998E-06 -4.397242E-06  1.282777E-05

 displacements (vx,vy,vz) for set N2 and time  0.3700000E-06

        11 -6.807095E-06 -5.176982E-06  1.336313E-05

 displacements (vx,vy,vz) for set N2 and time  0.3800000E-06

        11 -7.253796E-06 -5.992478E-06  1.370851E-05

 displacements (vx,vy,vz) for set N2 and time  0.3900000E-06

        11 -7.593716E-06 -6.777388E-06  1.429978E-05

 displacements (vx,vy,vz) for set N2 and time  0.4000000E-06

        11 -8.098472E-06 -7.497336E-06  1.529371E-05
