
 displacements (vx,vy,vz) for set NALL and time  0.1000000E+01

         1 -4.857449E-01  0.000000E+00  0.000000E+00
         2  4.857449E-01  5.400000E+05  7.554806E+02
         3 -4.857449E-01  0.000000E+00  0.000000E+00
         4  4.857449E-01  5.443000E+05  7.554806E+02
         5 -4.857449E-01  0.000000E+00  0.000000E+00

 temperatures for set NALL and time  0.1000000E+01

         1  0.000000E+00
         2  8.215610E+02
         3  0.000000E+00
         4  8.190000E+02
         5  0.000000E+00
