
 displacements (vx,vy,vz) for set NALL and time  0.1000000E+01

         1  1.000103E-01  0.000000E+00  0.000000E+00
         2  1.000103E-01  1.000000E-01  2.892419E+02
         3  1.000103E-01  0.000000E+00  0.000000E+00
         4  1.000103E-01  9.967840E-02  2.892159E+02
         5  1.000103E-01  0.000000E+00  0.000000E+00

 temperatures for set NALL and time  0.1000000E+01

         1  0.000000E+00
         2  2.930000E+02
         3  0.000000E+00
         4  2.930000E+02
         5  0.000000E+00
