
 displacements (vx,vy,vz) for set NALL and time  0.1000000E+01

         1 -5.020301E-01  0.000000E+00  0.000000E+00
         2  5.020301E-01  5.400000E+05  7.436890E+02
         3 -5.020301E-01  0.000000E+00  0.000000E+00
         4  5.020301E-01  5.443000E+05  7.463375E+02
         5 -5.020301E-01  0.000000E+00  0.000000E+00

 temperatures for set NALL and time  0.1000000E+01

         1  0.000000E+00
         2  8.190000E+02
         3  0.000000E+00
         4  8.190000E+02
         5  0.000000E+00
