
 displacements (vx,vy,vz) for set NALL and time  0.1000000E+01

         1  1.000527E-01  0.000000E+00  0.000000E+00
         2  1.000527E-01  1.000000E-01  2.930000E+02
         3  1.000527E-01  0.000000E+00  0.000000E+00
         4  1.000527E-01  9.995980E-02  2.892353E+02
         5  1.000527E-01  0.000000E+00  0.000000E+00
         6  1.000527E-01  9.991961E-02  2.892320E+02
         7  1.000527E-01  0.000000E+00  0.000000E+00
         8  1.000527E-01  9.987941E-02  2.892288E+02
         9  1.000527E-01  0.000000E+00  0.000000E+00
        10  1.000527E-01  9.983915E-02  2.930000E+02
        11  1.000527E-01  0.000000E+00  0.000000E+00
        12  1.000527E-01  9.979888E-02  2.892223E+02
        13  1.000527E-01  0.000000E+00  0.000000E+00
        14  1.000527E-01  9.975861E-02  2.892190E+02
        15  1.000527E-01  0.000000E+00  0.000000E+00
        16  1.000527E-01  9.971833E-02  2.892157E+02
        17  1.000527E-01  0.000000E+00  0.000000E+00
        18  1.000527E-01  9.967800E-02  2.930000E+02
        19  1.000527E-01  0.000000E+00  0.000000E+00
        20  1.000527E-01  0.000000E+00  0.000000E+00
        21  1.000527E-01  0.000000E+00  0.000000E+00
        22  1.000527E-01  9.983915E-02  2.930000E+02

 temperatures for set NALL and time  0.1000000E+01

         1  0.000000E+00
         2  2.930000E+02
         3  0.000000E+00
         4  2.930000E+02
         5  0.000000E+00
         6  2.930000E+02
         7  0.000000E+00
         8  2.930000E+02
         9  0.000000E+00
        10  2.930000E+02
        11  0.000000E+00
        12  2.930000E+02
        13  0.000000E+00
        14  2.930000E+02
        15  0.000000E+00
        16  2.930000E+02
        17  0.000000E+00
        18  2.930000E+02
        19  0.000000E+00
        20  0.000000E+00
        21  0.000000E+00
        22  2.930000E+02
