
 displacements (vx,vy,vz) for set NALL and time  0.1000000E+01

         1  4.175123E-01  0.000000E+00  0.000000E+00
         2  4.175123E-01  4.700000E+05  5.260105E+02
         3  4.175123E-01  0.000000E+00  0.000000E+00
         4  4.175123E-01  4.678520E+05  5.257186E+02
         5  4.175123E-01  0.000000E+00  0.000000E+00
         6  4.175123E-01  4.656866E+05  5.254181E+02
         7  4.175123E-01  0.000000E+00  0.000000E+00
         8  4.175123E-01  4.635035E+05  5.251086E+02
         9  4.175123E-01  0.000000E+00  0.000000E+00
        10  4.175123E-01  4.613020E+05  5.247897E+02
        11  4.175123E-01  0.000000E+00  0.000000E+00
        12  4.175123E-01  4.590817E+05  5.244609E+02
        13  4.175123E-01  0.000000E+00  0.000000E+00
        14  4.175123E-01  4.568420E+05  5.241216E+02
        15  4.175123E-01  0.000000E+00  0.000000E+00
        16  4.175123E-01  4.545822E+05  5.237713E+02
        17  4.175123E-01  0.000000E+00  0.000000E+00
        18  4.175123E-01  4.523018E+05  5.234093E+02
        19  4.175123E-01  0.000000E+00  0.000000E+00
        20  4.175123E-01  4.500000E+05  5.230350E+02
        21  4.175123E-01  0.000000E+00  0.000000E+00

 temperatures for set NALL and time  0.1000000E+01

         1  0.000000E+00
         2  5.500000E+02
         3  0.000000E+00
         4  5.500000E+02
         5  0.000000E+00
         6  5.500000E+02
         7  0.000000E+00
         8  5.500000E+02
         9  0.000000E+00
        10  5.500000E+02
        11  0.000000E+00
        12  5.500000E+02
        13  0.000000E+00
        14  5.500000E+02
        15  0.000000E+00
        16  5.500000E+02
        17  0.000000E+00
        18  5.500000E+02
        19  0.000000E+00
        20  5.500000E+02
        21  0.000000E+00
