
 displacements (vx,vy,vz) for set NOUT and time  0.1000000E+01

         1  4.967544E-07 -1.198806E-06  0.000000E+00
         4  4.967544E-07 -1.198806E-06  0.000000E+00
         5  4.903123E-07 -1.110115E-06  0.000000E+00
         8  4.903123E-07 -1.110115E-06  0.000000E+00
         9  4.767890E-07 -1.040058E-06  0.000000E+00
        12  4.767890E-07 -1.040058E-06  0.000000E+00
        13  4.618458E-07 -9.803731E-07  0.000000E+00
        16  4.618458E-07 -9.803731E-07  0.000000E+00
        17  4.464691E-07 -9.277492E-07  0.000000E+00
        20  4.464691E-07 -9.277492E-07  0.000000E+00
        21  4.308600E-07 -8.803975E-07  0.000000E+00
        24  4.308600E-07 -8.803975E-07  0.000000E+00
        25  4.150717E-07 -8.372717E-07  0.000000E+00
        28  4.150717E-07 -8.372717E-07  0.000000E+00
        29  3.991186E-07 -7.976861E-07  0.000000E+00
        32  3.991186E-07 -7.976861E-07  0.000000E+00
        33  3.830045E-07 -7.611627E-07  0.000000E+00
        36  3.830045E-07 -7.611627E-07  0.000000E+00
        37  3.667302E-07 -7.273523E-07  0.000000E+00
        40  3.667302E-07 -7.273523E-07  0.000000E+00
        41  3.502962E-07 -6.959912E-07  0.000000E+00
        44  3.502962E-07 -6.959912E-07  0.000000E+00
        45  3.337040E-07 -6.668754E-07  0.000000E+00
        48  3.337040E-07 -6.668754E-07  0.000000E+00
        49  3.169560E-07 -6.398438E-07  0.000000E+00
        52  3.169560E-07 -6.398438E-07  0.000000E+00
        53  3.000561E-07 -6.147677E-07  0.000000E+00
        56  3.000561E-07 -6.147677E-07  0.000000E+00
        57  2.830091E-07 -5.915432E-07  0.000000E+00
        60  2.830091E-07 -5.915432E-07  0.000000E+00
        61  2.658207E-07 -5.700861E-07  0.000000E+00
        64  2.658207E-07 -5.700861E-07  0.000000E+00
        65  2.484977E-07 -5.503289E-07  0.000000E+00
        68  2.484977E-07 -5.503289E-07  0.000000E+00
        69  2.310472E-07 -5.322186E-07  0.000000E+00
        72  2.310472E-07 -5.322186E-07  0.000000E+00
        73  2.134774E-07 -5.157181E-07  0.000000E+00
        76  2.134774E-07 -5.157181E-07  0.000000E+00
        77  1.957996E-07 -5.008096E-07  0.000000E+00
        80  1.957996E-07 -5.008096E-07  0.000000E+00
        81  1.780449E-07 -4.875363E-07  0.000000E+00
        84  1.780449E-07 -4.875363E-07  0.000000E+00
        85  1.602595E-07 -4.758387E-07  0.000000E+00
        88  1.602595E-07 -4.758387E-07  0.000000E+00
        89  1.424684E-07 -4.655584E-07  0.000000E+00
        92  1.424684E-07 -4.655584E-07  0.000000E+00
        93  1.246735E-07 -4.566143E-07  0.000000E+00
        96  1.246735E-07 -4.566143E-07  0.000000E+00
        97  1.068743E-07 -4.489503E-07  0.000000E+00
       100  1.068743E-07 -4.489503E-07  0.000000E+00
       101  8.907058E-08 -4.425248E-07  0.000000E+00
       104  8.907058E-08 -4.425248E-07  0.000000E+00
       105  7.126247E-08 -4.373062E-07  0.000000E+00
       108  7.126247E-08 -4.373062E-07  0.000000E+00
       109  5.345050E-08 -4.332705E-07  0.000000E+00
       112  5.345050E-08 -4.332705E-07  0.000000E+00
       113  3.563546E-08 -4.303999E-07  0.000000E+00
       116  3.563546E-08 -4.303999E-07  0.000000E+00
       117  1.781828E-08 -4.286823E-07  0.000000E+00
       120  1.781828E-08 -4.286823E-07  0.000000E+00
       121 -8.161163E-21 -4.281106E-07  0.000000E+00
       124 -6.862751E-21 -4.281106E-07  0.000000E+00
       125 -1.781828E-08 -4.286823E-07  0.000000E+00
       128 -1.781828E-08 -4.286823E-07  0.000000E+00
       129 -3.563546E-08 -4.303999E-07  0.000000E+00
       132 -3.563546E-08 -4.303999E-07  0.000000E+00
       133 -5.345050E-08 -4.332705E-07  0.000000E+00
       136 -5.345050E-08 -4.332705E-07  0.000000E+00
       137 -7.126247E-08 -4.373062E-07  0.000000E+00
       140 -7.126247E-08 -4.373062E-07  0.000000E+00
       141 -8.907058E-08 -4.425248E-07  0.000000E+00
       144 -8.907058E-08 -4.425248E-07  0.000000E+00
       145 -1.068743E-07 -4.489503E-07  0.000000E+00
       148 -1.068743E-07 -4.489503E-07  0.000000E+00
       149 -1.246735E-07 -4.566143E-07  0.000000E+00
       152 -1.246735E-07 -4.566143E-07  0.000000E+00
       153 -1.424684E-07 -4.655584E-07  0.000000E+00
       156 -1.424684E-07 -4.655584E-07  0.000000E+00
       157 -1.602595E-07 -4.758387E-07  0.000000E+00
       160 -1.602595E-07 -4.758387E-07  0.000000E+00
       161 -1.780449E-07 -4.875363E-07  0.000000E+00
       164 -1.780449E-07 -4.875363E-07  0.000000E+00
       165 -1.957996E-07 -5.008096E-07  0.000000E+00
       168 -1.957996E-07 -5.008096E-07  0.000000E+00
       169 -2.134774E-07 -5.157181E-07  0.000000E+00
       172 -2.134774E-07 -5.157181E-07  0.000000E+00
       173 -2.310472E-07 -5.322186E-07  0.000000E+00
       176 -2.310472E-07 -5.322186E-07  0.000000E+00
       177 -2.484977E-07 -5.503289E-07  0.000000E+00
       180 -2.484977E-07 -5.503289E-07  0.000000E+00
       181 -2.658207E-07 -5.700861E-07  0.000000E+00
       184 -2.658207E-07 -5.700861E-07  0.000000E+00
       185 -2.830091E-07 -5.915432E-07  0.000000E+00
       188 -2.830091E-07 -5.915432E-07  0.000000E+00
       189 -3.000561E-07 -6.147677E-07  0.000000E+00
       192 -3.000561E-07 -6.147677E-07  0.000000E+00
       193 -3.169560E-07 -6.398438E-07  0.000000E+00
       196 -3.169560E-07 -6.398438E-07  0.000000E+00
       197 -3.337040E-07 -6.668754E-07  0.000000E+00
       200 -3.337040E-07 -6.668754E-07  0.000000E+00
       201 -3.502962E-07 -6.959912E-07  0.000000E+00
       204 -3.502962E-07 -6.959912E-07  0.000000E+00
       205 -3.667302E-07 -7.273523E-07  0.000000E+00
       208 -3.667302E-07 -7.273523E-07  0.000000E+00
       209 -3.830045E-07 -7.611627E-07  0.000000E+00
       212 -3.830045E-07 -7.611627E-07  0.000000E+00
       213 -3.991186E-07 -7.976861E-07  0.000000E+00
       216 -3.991186E-07 -7.976861E-07  0.000000E+00
       217 -4.150717E-07 -8.372717E-07  0.000000E+00
       220 -4.150717E-07 -8.372717E-07  0.000000E+00
       221 -4.308600E-07 -8.803975E-07  0.000000E+00
       224 -4.308600E-07 -8.803975E-07  0.000000E+00
       225 -4.464691E-07 -9.277492E-07  0.000000E+00
       228 -4.464691E-07 -9.277492E-07  0.000000E+00
       229 -4.618458E-07 -9.803731E-07  0.000000E+00
       232 -4.618458E-07 -9.803731E-07  0.000000E+00
       233 -4.767890E-07 -1.040058E-06  0.000000E+00
       236 -4.767890E-07 -1.040058E-06  0.000000E+00
       237 -4.903123E-07 -1.110115E-06  0.000000E+00
       240 -4.903123E-07 -1.110115E-06  0.000000E+00
       241 -4.967544E-07 -1.198806E-06  0.000000E+00
       244 -4.967544E-07 -1.198806E-06  0.000000E+00
     17383  2.118828E-10 -4.977164E-07  0.000000E+00
     17384  2.118828E-10 -4.977164E-07  0.000000E+00
     17385  2.119249E-10 -4.975969E-07  0.000000E+00
     17386  2.119249E-10 -4.975969E-07  0.000000E+00
     17387  2.117115E-10 -4.974786E-07  0.000000E+00
     17388  2.117115E-10 -4.974786E-07  0.000000E+00
     17389  2.104004E-10 -4.973615E-07  0.000000E+00
     17390  2.104004E-10 -4.973615E-07  0.000000E+00
     17391  2.072605E-10 -4.972454E-07  0.000000E+00
     17392  2.072605E-10 -4.972454E-07  0.000000E+00
     17393  2.017742E-10 -4.971294E-07  0.000000E+00
     17394  2.017742E-10 -4.971294E-07  0.000000E+00
     17395  1.936055E-10 -4.970127E-07  0.000000E+00
     17396  1.936055E-10 -4.970127E-07  0.000000E+00
     17397  1.825559E-10 -4.968942E-07  0.000000E+00
     17398  1.825559E-10 -4.968942E-07  0.000000E+00
     17399  1.685274E-10 -4.967729E-07  0.000000E+00
     17400  1.685274E-10 -4.967729E-07  0.000000E+00
     17401  1.514939E-10 -4.966479E-07  0.000000E+00
     17402  1.514939E-10 -4.966479E-07  0.000000E+00
     17403  1.314809E-10 -4.965181E-07  0.000000E+00
     17404  1.314809E-10 -4.965181E-07  0.000000E+00
     17405  1.085503E-10 -4.963824E-07  0.000000E+00
     17406  1.085503E-10 -4.963824E-07  0.000000E+00
     17407  8.278956E-11 -4.962397E-07  0.000000E+00
     17408  8.278956E-11 -4.962397E-07  0.000000E+00
     17409  5.430361E-11 -4.960886E-07  0.000000E+00
     17410  5.430361E-11 -4.960886E-07  0.000000E+00
     17411  2.320920E-11 -4.959279E-07  0.000000E+00
     17412  2.320920E-11 -4.959279E-07  0.000000E+00
     17413 -1.036935E-11 -4.957560E-07  0.000000E+00
     17414 -1.036935E-11 -4.957560E-07  0.000000E+00
     17415 -4.630305E-11 -4.955710E-07  0.000000E+00
     17416 -4.630305E-11 -4.955710E-07  0.000000E+00
     17417 -8.445990E-11 -4.953709E-07  0.000000E+00
     17418 -8.445990E-11 -4.953709E-07  0.000000E+00
     17419 -1.247037E-10 -4.951528E-07  0.000000E+00
     17420 -1.247037E-10 -4.951528E-07  0.000000E+00
     17421 -1.668855E-10 -4.949134E-07  0.000000E+00
     17422 -1.668855E-10 -4.949134E-07  0.000000E+00
     17423 -2.107897E-10 -4.946477E-07  0.000000E+00
     17424 -2.107897E-10 -4.946477E-07  0.000000E+00
     17425 -2.559775E-10 -4.943486E-07  0.000000E+00
     17426 -2.559775E-10 -4.943486E-07  0.000000E+00
     17427 -3.005357E-10 -4.940042E-07  0.000000E+00
     17428 -3.005357E-10 -4.940042E-07  0.000000E+00
     17429 -3.401839E-10 -4.935829E-07  0.000000E+00
     17430 -3.401839E-10 -4.935829E-07  0.000000E+00
     17431 -3.709255E-10 -4.930687E-07  0.000000E+00
     17432 -3.709255E-10 -4.930687E-07  0.000000E+00
     17433 -3.891680E-10 -4.925259E-07  0.000000E+00
     17434 -3.891680E-10 -4.925259E-07  0.000000E+00
     17435 -3.928532E-10 -4.919876E-07  0.000000E+00
     17436 -3.928532E-10 -4.919876E-07  0.000000E+00
     17437 -3.829131E-10 -4.914734E-07  0.000000E+00
     17438 -3.829131E-10 -4.914734E-07  0.000000E+00
     17439 -3.608865E-10 -4.909969E-07  0.000000E+00
     17440 -3.608865E-10 -4.909969E-07  0.000000E+00
     17441 -3.283931E-10 -4.905680E-07  0.000000E+00
     17442 -3.283931E-10 -4.905680E-07  0.000000E+00
     17443 -2.870225E-10 -4.901942E-07  0.000000E+00
     17444 -2.870225E-10 -4.901942E-07  0.000000E+00
     17445 -2.383220E-10 -4.898814E-07  0.000000E+00
     17446 -2.383220E-10 -4.898814E-07  0.000000E+00
     17447 -1.838002E-10 -4.896339E-07  0.000000E+00
     17448 -1.838002E-10 -4.896339E-07  0.000000E+00
     17449 -1.249360E-10 -4.894549E-07  0.000000E+00
     17450 -1.249360E-10 -4.894549E-07  0.000000E+00
     17451 -6.318746E-11 -4.893467E-07  0.000000E+00
     17452 -6.318746E-11 -4.893467E-07  0.000000E+00
     17453 -3.324972E-21 -4.893105E-07  0.000000E+00
     17454 -3.421114E-21 -4.893105E-07  0.000000E+00
     17455  6.318746E-11 -4.893467E-07  0.000000E+00
     17456  6.318746E-11 -4.893467E-07  0.000000E+00
     17457  1.249360E-10 -4.894549E-07  0.000000E+00
     17458  1.249360E-10 -4.894549E-07  0.000000E+00
     17459  1.838002E-10 -4.896339E-07  0.000000E+00
     17460  1.838002E-10 -4.896339E-07  0.000000E+00
     17461  2.383220E-10 -4.898814E-07  0.000000E+00
     17462  2.383220E-10 -4.898814E-07  0.000000E+00
     17463  2.870225E-10 -4.901942E-07  0.000000E+00
     17464  2.870225E-10 -4.901942E-07  0.000000E+00
     17465  3.283931E-10 -4.905680E-07  0.000000E+00
     17466  3.283931E-10 -4.905680E-07  0.000000E+00
     17467  3.608865E-10 -4.909969E-07  0.000000E+00
     17468  3.608865E-10 -4.909969E-07  0.000000E+00
     17469  3.829131E-10 -4.914734E-07  0.000000E+00
     17470  3.829131E-10 -4.914734E-07  0.000000E+00
     17471  3.928532E-10 -4.919876E-07  0.000000E+00
     17472  3.928532E-10 -4.919876E-07  0.000000E+00
     17473  3.891680E-10 -4.925259E-07  0.000000E+00
     17474  3.891680E-10 -4.925259E-07  0.000000E+00
     17475  3.709255E-10 -4.930687E-07  0.000000E+00
     17476  3.709255E-10 -4.930687E-07  0.000000E+00
     17477  3.401839E-10 -4.935829E-07  0.000000E+00
     17478  3.401839E-10 -4.935829E-07  0.000000E+00
     17479  3.005357E-10 -4.940042E-07  0.000000E+00
     17480  3.005357E-10 -4.940042E-07  0.000000E+00
     17481  2.559775E-10 -4.943486E-07  0.000000E+00
     17482  2.559775E-10 -4.943486E-07  0.000000E+00
     17483  2.107897E-10 -4.946477E-07  0.000000E+00
     17484  2.107897E-10 -4.946477E-07  0.000000E+00
     17485  1.668855E-10 -4.949134E-07  0.000000E+00
     17486  1.668855E-10 -4.949134E-07  0.000000E+00
     17487  1.247037E-10 -4.951528E-07  0.000000E+00
     17488  1.247037E-10 -4.951528E-07  0.000000E+00
     17489  8.445990E-11 -4.953709E-07  0.000000E+00
     17490  8.445990E-11 -4.953709E-07  0.000000E+00
     17491  4.630305E-11 -4.955710E-07  0.000000E+00
     17492  4.630305E-11 -4.955710E-07  0.000000E+00
     17493  1.036935E-11 -4.957560E-07  0.000000E+00
     17494  1.036935E-11 -4.957560E-07  0.000000E+00
     17495 -2.320920E-11 -4.959279E-07  0.000000E+00
     17496 -2.320920E-11 -4.959279E-07  0.000000E+00
     17497 -5.430361E-11 -4.960886E-07  0.000000E+00
     17498 -5.430361E-11 -4.960886E-07  0.000000E+00
     17499 -8.278956E-11 -4.962397E-07  0.000000E+00
     17500 -8.278956E-11 -4.962397E-07  0.000000E+00
     17501 -1.085503E-10 -4.963824E-07  0.000000E+00
     17502 -1.085503E-10 -4.963824E-07  0.000000E+00
     17503 -1.314809E-10 -4.965181E-07  0.000000E+00
     17504 -1.314809E-10 -4.965181E-07  0.000000E+00
     17505 -1.514939E-10 -4.966479E-07  0.000000E+00
     17506 -1.514939E-10 -4.966479E-07  0.000000E+00
     17507 -1.685274E-10 -4.967729E-07  0.000000E+00
     17508 -1.685274E-10 -4.967729E-07  0.000000E+00
     17509 -1.825559E-10 -4.968942E-07  0.000000E+00
     17510 -1.825559E-10 -4.968942E-07  0.000000E+00
     17511 -1.936055E-10 -4.970127E-07  0.000000E+00
     17512 -1.936055E-10 -4.970127E-07  0.000000E+00
     17513 -2.017742E-10 -4.971294E-07  0.000000E+00
     17514 -2.017742E-10 -4.971294E-07  0.000000E+00
     17515 -2.072605E-10 -4.972454E-07  0.000000E+00
     17516 -2.072605E-10 -4.972454E-07  0.000000E+00
     17517 -2.104004E-10 -4.973615E-07  0.000000E+00
     17518 -2.104004E-10 -4.973615E-07  0.000000E+00
     17519 -2.117115E-10 -4.974786E-07  0.000000E+00
     17520 -2.117115E-10 -4.974786E-07  0.000000E+00
     17521 -2.119249E-10 -4.975969E-07  0.000000E+00
     17522 -2.119249E-10 -4.975969E-07  0.000000E+00
     17523 -2.118828E-10 -4.977164E-07  0.000000E+00
     17524 -2.118828E-10 -4.977164E-07  0.000000E+00
