
 displacements (vx,vy,vz) for set NOUT and time  0.1000000E+01

         1  1.351624E-06 -1.539539E-06  0.000000E+00
         4  1.351624E-06 -1.539539E-06  0.000000E+00
         5  1.345174E-06 -1.433550E-06  0.000000E+00
         8  1.345174E-06 -1.433550E-06  0.000000E+00
         9  1.331615E-06 -1.346197E-06  0.000000E+00
        12  1.331615E-06 -1.346197E-06  0.000000E+00
        13  1.316604E-06 -1.269273E-06  0.000000E+00
        16  1.316604E-06 -1.269273E-06  0.000000E+00
        17  1.301146E-06 -1.199513E-06  0.000000E+00
        20  1.301146E-06 -1.199513E-06  0.000000E+00
        21  1.285468E-06 -1.135162E-06  0.000000E+00
        24  1.285468E-06 -1.135162E-06  0.000000E+00
        25  1.269654E-06 -1.075195E-06  0.000000E+00
        28  1.269654E-06 -1.075195E-06  0.000000E+00
        29  1.253749E-06 -1.018936E-06  0.000000E+00
        32  1.253749E-06 -1.018936E-06  0.000000E+00
        33  1.237788E-06 -9.659107E-07  0.000000E+00
        36  1.237788E-06 -9.659107E-07  0.000000E+00
        37  1.221799E-06 -9.157657E-07  0.000000E+00
        40  1.221799E-06 -9.157657E-07  0.000000E+00
        41  1.205809E-06 -8.682281E-07  0.000000E+00
        44  1.205809E-06 -8.682281E-07  0.000000E+00
        45  1.189845E-06 -8.230797E-07  0.000000E+00
        48  1.189845E-06 -8.230797E-07  0.000000E+00
        49  1.173932E-06 -7.801418E-07  0.000000E+00
        52  1.173932E-06 -7.801418E-07  0.000000E+00
        53  1.158093E-06 -7.392641E-07  0.000000E+00
        56  1.158093E-06 -7.392641E-07  0.000000E+00
        57  1.142353E-06 -7.003184E-07  0.000000E+00
        60  1.142353E-06 -7.003184E-07  0.000000E+00
        61  1.126734E-06 -6.631929E-07  0.000000E+00
        64  1.126734E-06 -6.631929E-07  0.000000E+00
        65  1.111258E-06 -6.277891E-07  0.000000E+00
        68  1.111258E-06 -6.277891E-07  0.000000E+00
        69  1.095945E-06 -5.940191E-07  0.000000E+00
        72  1.095945E-06 -5.940191E-07  0.000000E+00
        73  1.080814E-06 -5.618032E-07  0.000000E+00
        76  1.080814E-06 -5.618032E-07  0.000000E+00
        77  1.065885E-06 -5.310691E-07  0.000000E+00
        80  1.065885E-06 -5.310691E-07  0.000000E+00
        81  1.051174E-06 -5.017505E-07  0.000000E+00
        84  1.051174E-06 -5.017505E-07  0.000000E+00
        85  1.036697E-06 -4.737862E-07  0.000000E+00
        88  1.036697E-06 -4.737862E-07  0.000000E+00
        89  1.022469E-06 -4.471196E-07  0.000000E+00
        92  1.022469E-06 -4.471196E-07  0.000000E+00
        93  1.008503E-06 -4.216985E-07  0.000000E+00
        96  1.008503E-06 -4.216985E-07  0.000000E+00
        97  9.948123E-07 -3.974742E-07  0.000000E+00
       100  9.948123E-07 -3.974742E-07  0.000000E+00
       101  9.814065E-07 -3.744022E-07  0.000000E+00
       104  9.814065E-07 -3.744022E-07  0.000000E+00
       105  9.682956E-07 -3.524414E-07  0.000000E+00
       108  9.682956E-07 -3.524414E-07  0.000000E+00
       109  9.554876E-07 -3.315549E-07  0.000000E+00
       112  9.554876E-07 -3.315549E-07  0.000000E+00
       113  9.429895E-07 -3.117100E-07  0.000000E+00
       116  9.429895E-07 -3.117100E-07  0.000000E+00
       117  9.308068E-07 -2.928788E-07  0.000000E+00
       120  9.308068E-07 -2.928788E-07  0.000000E+00
       121  9.189436E-07 -2.750396E-07  0.000000E+00
       124  9.189436E-07 -2.750396E-07  0.000000E+00
       125  9.074025E-07 -2.581782E-07  0.000000E+00
       128  9.074025E-07 -2.581782E-07  0.000000E+00
       129  8.961849E-07 -2.422917E-07  0.000000E+00
       132  8.961849E-07 -2.422917E-07  0.000000E+00
       133  8.852911E-07 -2.273956E-07  0.000000E+00
       136  8.852911E-07 -2.273956E-07  0.000000E+00
       137  8.747246E-07 -2.135373E-07  0.000000E+00
       140  8.747246E-07 -2.135373E-07  0.000000E+00
       141  8.645290E-07 -2.008961E-07  0.000000E+00
       144  8.645290E-07 -2.008961E-07  0.000000E+00
       145  8.548006E-07 -1.895158E-07  0.000000E+00
       148  8.548006E-07 -1.895158E-07  0.000000E+00
       149  8.456023E-07 -1.790746E-07  0.000000E+00
       152  8.456023E-07 -1.790746E-07  0.000000E+00
       153  8.369356E-07 -1.694101E-07  0.000000E+00
       156  8.369356E-07 -1.694101E-07  0.000000E+00
       157  8.287906E-07 -1.604104E-07  0.000000E+00
       160  8.287906E-07 -1.604104E-07  0.000000E+00
       161  8.211558E-07 -1.519878E-07  0.000000E+00
       164  8.211558E-07 -1.519878E-07  0.000000E+00
       165  8.140193E-07 -1.440674E-07  0.000000E+00
       168  8.140193E-07 -1.440674E-07  0.000000E+00
       169  8.073680E-07 -1.365829E-07  0.000000E+00
       172  8.073680E-07 -1.365829E-07  0.000000E+00
       173  8.011875E-07 -1.294739E-07  0.000000E+00
       176  8.011875E-07 -1.294739E-07  0.000000E+00
       177  7.954624E-07 -1.226845E-07  0.000000E+00
       180  7.954624E-07 -1.226845E-07  0.000000E+00
       181  7.901755E-07 -1.161627E-07  0.000000E+00
       184  7.901755E-07 -1.161627E-07  0.000000E+00
       185  7.853076E-07 -1.098592E-07  0.000000E+00
       188  7.853076E-07 -1.098592E-07  0.000000E+00
       189  7.808376E-07 -1.037277E-07  0.000000E+00
       192  7.808376E-07 -1.037277E-07  0.000000E+00
       193  7.767422E-07 -9.772438E-08  0.000000E+00
       196  7.767422E-07 -9.772438E-08  0.000000E+00
       197  7.729952E-07 -9.180809E-08  0.000000E+00
       200  7.729952E-07 -9.180809E-08  0.000000E+00
       201  7.695675E-07 -8.594047E-08  0.000000E+00
       204  7.695675E-07 -8.594047E-08  0.000000E+00
       205  7.664268E-07 -8.008637E-08  0.000000E+00
       208  7.664268E-07 -8.008637E-08  0.000000E+00
       209  7.635369E-07 -7.421452E-08  0.000000E+00
       212  7.635369E-07 -7.421452E-08  0.000000E+00
       213  7.608579E-07 -6.829835E-08  0.000000E+00
       216  7.608579E-07 -6.829835E-08  0.000000E+00
       217  7.583451E-07 -6.231734E-08  0.000000E+00
       220  7.583451E-07 -6.231734E-08  0.000000E+00
       221  7.559495E-07 -5.625879E-08  0.000000E+00
       224  7.559495E-07 -5.625879E-08  0.000000E+00
       225  7.536175E-07 -5.011999E-08  0.000000E+00
       228  7.536175E-07 -5.011999E-08  0.000000E+00
       229  7.512921E-07 -4.391149E-08  0.000000E+00
       232  7.512921E-07 -4.391149E-08  0.000000E+00
       233  7.489159E-07 -3.765851E-08  0.000000E+00
       236  7.489159E-07 -3.765851E-08  0.000000E+00
       237  7.464370E-07 -3.140395E-08  0.000000E+00
       240  7.464370E-07 -3.140395E-08  0.000000E+00
       241  7.437969E-07 -2.509475E-08  0.000000E+00
       244  7.437969E-07 -2.509475E-08  0.000000E+00
     17383  9.602108E-07  3.584811E-07  0.000000E+00
     17384  9.602108E-07  3.584811E-07  0.000000E+00
     17385  9.602061E-07  3.437187E-07  0.000000E+00
     17386  9.602061E-07  3.437187E-07  0.000000E+00
     17387  9.601816E-07  3.289497E-07  0.000000E+00
     17388  9.601816E-07  3.289497E-07  0.000000E+00
     17389  9.601292E-07  3.142049E-07  0.000000E+00
     17390  9.601292E-07  3.142049E-07  0.000000E+00
     17391  9.600540E-07  2.995165E-07  0.000000E+00
     17392  9.600540E-07  2.995165E-07  0.000000E+00
     17393  9.599681E-07  2.849111E-07  0.000000E+00
     17394  9.599681E-07  2.849111E-07  0.000000E+00
     17395  9.598879E-07  2.704088E-07  0.000000E+00
     17396  9.598879E-07  2.704088E-07  0.000000E+00
     17397  9.598309E-07  2.560242E-07  0.000000E+00
     17398  9.598309E-07  2.560242E-07  0.000000E+00
     17399  9.598155E-07  2.417666E-07  0.000000E+00
     17400  9.598155E-07  2.417666E-07  0.000000E+00
     17401  9.598599E-07  2.276414E-07  0.000000E+00
     17402  9.598599E-07  2.276414E-07  0.000000E+00
     17403  9.599817E-07  2.136504E-07  0.000000E+00
     17404  9.599817E-07  2.136504E-07  0.000000E+00
     17405  9.601978E-07  1.997923E-07  0.000000E+00
     17406  9.601978E-07  1.997923E-07  0.000000E+00
     17407  9.605244E-07  1.860631E-07  0.000000E+00
     17408  9.605244E-07  1.860631E-07  0.000000E+00
     17409  9.609767E-07  1.724570E-07  0.000000E+00
     17410  9.609767E-07  1.724570E-07  0.000000E+00
     17411  9.615689E-07  1.589660E-07  0.000000E+00
     17412  9.615689E-07  1.589660E-07  0.000000E+00
     17413  9.623142E-07  1.455805E-07  0.000000E+00
     17414  9.623142E-07  1.455805E-07  0.000000E+00
     17415  9.632251E-07  1.322898E-07  0.000000E+00
     17416  9.632251E-07  1.322898E-07  0.000000E+00
     17417  9.643128E-07  1.190816E-07  0.000000E+00
     17418  9.643128E-07  1.190816E-07  0.000000E+00
     17419  9.655880E-07  1.059429E-07  0.000000E+00
     17420  9.655880E-07  1.059429E-07  0.000000E+00
     17421  9.670601E-07  9.285957E-08  0.000000E+00
     17422  9.670601E-07  9.285957E-08  0.000000E+00
     17423  9.687379E-07  7.981684E-08  0.000000E+00
     17424  9.687379E-07  7.981684E-08  0.000000E+00
     17425  9.706292E-07  6.679923E-08  0.000000E+00
     17426  9.706292E-07  6.679923E-08  0.000000E+00
     17427  9.727410E-07  5.379072E-08  0.000000E+00
     17428  9.727410E-07  5.379072E-08  0.000000E+00
     17429  9.750796E-07  4.077480E-08  0.000000E+00
     17430  9.750796E-07  4.077480E-08  0.000000E+00
     17431  9.776502E-07  2.773460E-08  0.000000E+00
     17432  9.776502E-07  2.773460E-08  0.000000E+00
     17433  9.804576E-07  1.465294E-08  0.000000E+00
     17434  9.804576E-07  1.465294E-08  0.000000E+00
     17435  9.835055E-07  1.512420E-09  0.000000E+00
     17436  9.835055E-07  1.512420E-09  0.000000E+00
     17437  9.867971E-07 -1.170447E-08  0.000000E+00
     17438  9.867971E-07 -1.170447E-08  0.000000E+00
     17439  9.903345E-07 -2.501529E-08  0.000000E+00
     17440  9.903345E-07 -2.501529E-08  0.000000E+00
     17441  9.941194E-07 -3.843755E-08  0.000000E+00
     17442  9.941194E-07 -3.843755E-08  0.000000E+00
     17443  9.981526E-07 -5.198857E-08  0.000000E+00
     17444  9.981526E-07 -5.198857E-08  0.000000E+00
     17445  1.002434E-06 -6.568537E-08  0.000000E+00
     17446  1.002434E-06 -6.568537E-08  0.000000E+00
     17447  1.006963E-06 -7.954450E-08  0.000000E+00
     17448  1.006963E-06 -7.954450E-08  0.000000E+00
     17449  1.011739E-06 -9.358180E-08  0.000000E+00
     17450  1.011739E-06 -9.358180E-08  0.000000E+00
     17451  1.016759E-06 -1.078121E-07  0.000000E+00
     17452  1.016759E-06 -1.078121E-07  0.000000E+00
     17453  1.022020E-06 -1.222490E-07  0.000000E+00
     17454  1.022020E-06 -1.222490E-07  0.000000E+00
     17455  1.027519E-06 -1.369038E-07  0.000000E+00
     17456  1.027519E-06 -1.369038E-07  0.000000E+00
     17457  1.033252E-06 -1.517849E-07  0.000000E+00
     17458  1.033252E-06 -1.517849E-07  0.000000E+00
     17459  1.039213E-06 -1.668956E-07  0.000000E+00
     17460  1.039213E-06 -1.668956E-07  0.000000E+00
     17461  1.045398E-06 -1.822304E-07  0.000000E+00
     17462  1.045398E-06 -1.822304E-07  0.000000E+00
     17463  1.051809E-06 -1.977655E-07  0.000000E+00
     17464  1.051809E-06 -1.977655E-07  0.000000E+00
     17465  1.058448E-06 -2.134075E-07  0.000000E+00
     17466  1.058448E-06 -2.134075E-07  0.000000E+00
     17467  1.065319E-06 -2.292024E-07  0.000000E+00
     17468  1.065319E-06 -2.292024E-07  0.000000E+00
     17469  1.072424E-06 -2.453010E-07  0.000000E+00
     17470  1.072424E-06 -2.453010E-07  0.000000E+00
     17471  1.079760E-06 -2.617832E-07  0.000000E+00
     17472  1.079760E-06 -2.617832E-07  0.000000E+00
     17473  1.087316E-06 -2.787120E-07  0.000000E+00
     17474  1.087316E-06 -2.787120E-07  0.000000E+00
     17475  1.095083E-06 -2.961415E-07  0.000000E+00
     17476  1.095083E-06 -2.961415E-07  0.000000E+00
     17477  1.103047E-06 -3.141218E-07  0.000000E+00
     17478  1.103047E-06 -3.141218E-07  0.000000E+00
     17479  1.111196E-06 -3.327007E-07  0.000000E+00
     17480  1.111196E-06 -3.327007E-07  0.000000E+00
     17481  1.119517E-06 -3.519250E-07  0.000000E+00
     17482  1.119517E-06 -3.519250E-07  0.000000E+00
     17483  1.127996E-06 -3.718419E-07  0.000000E+00
     17484  1.127996E-06 -3.718419E-07  0.000000E+00
     17485  1.136618E-06 -3.924990E-07  0.000000E+00
     17486  1.136618E-06 -3.924990E-07  0.000000E+00
     17487  1.145368E-06 -4.139458E-07  0.000000E+00
     17488  1.145368E-06 -4.139458E-07  0.000000E+00
     17489  1.154229E-06 -4.362339E-07  0.000000E+00
     17490  1.154229E-06 -4.362339E-07  0.000000E+00
     17491  1.163184E-06 -4.594181E-07  0.000000E+00
     17492  1.163184E-06 -4.594181E-07  0.000000E+00
     17493  1.172217E-06 -4.835571E-07  0.000000E+00
     17494  1.172217E-06 -4.835571E-07  0.000000E+00
     17495  1.181307E-06 -5.087150E-07  0.000000E+00
     17496  1.181307E-06 -5.087150E-07  0.000000E+00
     17497  1.190436E-06 -5.349623E-07  0.000000E+00
     17498  1.190436E-06 -5.349623E-07  0.000000E+00
     17499  1.199582E-06 -5.623781E-07  0.000000E+00
     17500  1.199582E-06 -5.623781E-07  0.000000E+00
     17501  1.208726E-06 -5.910522E-07  0.000000E+00
     17502  1.208726E-06 -5.910522E-07  0.000000E+00
     17503  1.217843E-06 -6.210891E-07  0.000000E+00
     17504  1.217843E-06 -6.210891E-07  0.000000E+00
     17505  1.226910E-06 -6.526119E-07  0.000000E+00
     17506  1.226910E-06 -6.526119E-07  0.000000E+00
     17507  1.235902E-06 -6.857699E-07  0.000000E+00
     17508  1.235902E-06 -6.857699E-07  0.000000E+00
     17509  1.244790E-06 -7.207487E-07  0.000000E+00
     17510  1.244790E-06 -7.207487E-07  0.000000E+00
     17511  1.253543E-06 -7.577866E-07  0.000000E+00
     17512  1.253543E-06 -7.577866E-07  0.000000E+00
     17513  1.262123E-06 -7.972024E-07  0.000000E+00
     17514  1.262123E-06 -7.972024E-07  0.000000E+00
     17515  1.270473E-06 -8.394454E-07  0.000000E+00
     17516  1.270473E-06 -8.394454E-07  0.000000E+00
     17517  1.278486E-06 -8.851890E-07  0.000000E+00
     17518  1.278486E-06 -8.851890E-07  0.000000E+00
     17519  1.285914E-06 -9.355558E-07  0.000000E+00
     17520  1.285914E-06 -9.355558E-07  0.000000E+00
     17521  1.291903E-06 -9.924485E-07  0.000000E+00
     17522  1.291903E-06 -9.924485E-07  0.000000E+00
     17523  1.294341E-06 -1.061983E-06  0.000000E+00
     17524  1.294341E-06 -1.061983E-06  0.000000E+00
