    1C
    1UUSER                                                              
    1UDATE              24.november.2019                                
    1UTIME              19:37:29                                        
    1UHOST                                                              
    1UPGM               CalculiX                                        
    1UVERSION           Version 2.16                             
    1UCOMPILETIME       So 24. Nov 18:30:58 CET 2019                    
    1UDIR                                                               
    1UDBN                                                               
    1UMAT    1STEEL                                                     
    1UMAT    2AIR                                                       
    2C                          3473                                     1
 -1       341 1.00000E+00 1.00000E+00 0.00000E+00
 -1       342 1.00000E+00 8.75000E-01 0.00000E+00
 -1       343 1.00000E+00 8.75000E-01 1.25000E-01
 -1       344 1.00000E+00 1.00000E+00 1.25000E-01
 -1       345 8.75000E-01 1.00000E+00 0.00000E+00
 -1       346 8.75000E-01 8.75000E-01 0.00000E+00
 -1       347 8.75000E-01 8.75000E-01 1.25000E-01
 -1       348 8.75000E-01 1.00000E+00 1.25000E-01
 -1       349 1.00000E+00 9.37500E-01 0.00000E+00
 -1       350 1.00000E+00 8.75000E-01 6.25000E-02
 -1       351 1.00000E+00 9.37500E-01 1.25000E-01
 -1       352 1.00000E+00 1.00000E+00 6.25000E-02
 -1       353 9.37500E-01 1.00000E+00 0.00000E+00
 -1       354 9.37500E-01 8.75000E-01 0.00000E+00
 -1       355 9.37500E-01 8.75000E-01 1.25000E-01
 -1       356 9.37500E-01 1.00000E+00 1.25000E-01
 -1       357 8.75000E-01 9.37500E-01 0.00000E+00
 -1       358 8.75000E-01 8.75000E-01 6.25000E-02
 -1       359 8.75000E-01 9.37500E-01 1.25000E-01
 -1       360 8.75000E-01 1.00000E+00 6.25000E-02
 -1       361 1.00000E+00 8.75000E-01 2.50000E-01
 -1       362 1.00000E+00 1.00000E+00 2.50000E-01
 -1       363 8.75000E-01 8.75000E-01 2.50000E-01
 -1       364 8.75000E-01 1.00000E+00 2.50000E-01
 -1       365 1.00000E+00 8.75000E-01 1.87500E-01
 -1       366 1.00000E+00 9.37500E-01 2.50000E-01
 -1       367 1.00000E+00 1.00000E+00 1.87500E-01
 -1       368 9.37500E-01 8.75000E-01 2.50000E-01
 -1       369 9.37500E-01 1.00000E+00 2.50000E-01
 -1       370 8.75000E-01 8.75000E-01 1.87500E-01
 -1       371 8.75000E-01 9.37500E-01 2.50000E-01
 -1       372 8.75000E-01 1.00000E+00 1.87500E-01
 -1       373 1.00000E+00 8.75000E-01 3.75000E-01
 -1       374 1.00000E+00 1.00000E+00 3.75000E-01
 -1       375 8.75000E-01 8.75000E-01 3.75000E-01
 -1       376 8.75000E-01 1.00000E+00 3.75000E-01
 -1       377 1.00000E+00 8.75000E-01 3.12500E-01
 -1       378 1.00000E+00 9.37500E-01 3.75000E-01
 -1       379 1.00000E+00 1.00000E+00 3.12500E-01
 -1       380 9.37500E-01 8.75000E-01 3.75000E-01
 -1       381 9.37500E-01 1.00000E+00 3.75000E-01
 -1       382 8.75000E-01 8.75000E-01 3.12500E-01
 -1       383 8.75000E-01 9.37500E-01 3.75000E-01
 -1       384 8.75000E-01 1.00000E+00 3.12500E-01
 -1       385 1.00000E+00 8.75000E-01 5.00000E-01
 -1       386 1.00000E+00 1.00000E+00 5.00000E-01
 -1       387 8.75000E-01 8.75000E-01 5.00000E-01
 -1       388 8.75000E-01 1.00000E+00 5.00000E-01
 -1       389 1.00000E+00 8.75000E-01 4.37500E-01
 -1       390 1.00000E+00 9.37500E-01 5.00000E-01
 -1       391 1.00000E+00 1.00000E+00 4.37500E-01
 -1       392 9.37500E-01 8.75000E-01 5.00000E-01
 -1       393 9.37500E-01 1.00000E+00 5.00000E-01
 -1       394 8.75000E-01 8.75000E-01 4.37500E-01
 -1       395 8.75000E-01 9.37500E-01 5.00000E-01
 -1       396 8.75000E-01 1.00000E+00 4.37500E-01
 -1       397 1.00000E+00 8.75000E-01 6.25000E-01
 -1       398 1.00000E+00 1.00000E+00 6.25000E-01
 -1       399 8.75000E-01 8.75000E-01 6.25000E-01
 -1       400 8.75000E-01 1.00000E+00 6.25000E-01
 -1       401 1.00000E+00 8.75000E-01 5.62500E-01
 -1       402 1.00000E+00 9.37500E-01 6.25000E-01
 -1       403 1.00000E+00 1.00000E+00 5.62500E-01
 -1       404 9.37500E-01 8.75000E-01 6.25000E-01
 -1       405 9.37500E-01 1.00000E+00 6.25000E-01
 -1       406 8.75000E-01 8.75000E-01 5.62500E-01
 -1       407 8.75000E-01 9.37500E-01 6.25000E-01
 -1       408 8.75000E-01 1.00000E+00 5.62500E-01
 -1       409 1.00000E+00 8.75000E-01 7.50000E-01
 -1       410 1.00000E+00 1.00000E+00 7.50000E-01
 -1       411 8.75000E-01 8.75000E-01 7.50000E-01
 -1       412 8.75000E-01 1.00000E+00 7.50000E-01
 -1       413 1.00000E+00 8.75000E-01 6.87500E-01
 -1       414 1.00000E+00 9.37500E-01 7.50000E-01
 -1       415 1.00000E+00 1.00000E+00 6.87500E-01
 -1       416 9.37500E-01 8.75000E-01 7.50000E-01
 -1       417 9.37500E-01 1.00000E+00 7.50000E-01
 -1       418 8.75000E-01 8.75000E-01 6.87500E-01
 -1       419 8.75000E-01 9.37500E-01 7.50000E-01
 -1       420 8.75000E-01 1.00000E+00 6.87500E-01
 -1       421 1.00000E+00 8.75000E-01 8.75000E-01
 -1       422 1.00000E+00 1.00000E+00 8.75000E-01
 -1       423 8.75000E-01 8.75000E-01 8.75000E-01
 -1       424 8.75000E-01 1.00000E+00 8.75000E-01
 -1       425 1.00000E+00 8.75000E-01 8.12500E-01
 -1       426 1.00000E+00 9.37500E-01 8.75000E-01
 -1       427 1.00000E+00 1.00000E+00 8.12500E-01
 -1       428 9.37500E-01 8.75000E-01 8.75000E-01
 -1       429 9.37500E-01 1.00000E+00 8.75000E-01
 -1       430 8.75000E-01 8.75000E-01 8.12500E-01
 -1       431 8.75000E-01 9.37500E-01 8.75000E-01
 -1       432 8.75000E-01 1.00000E+00 8.12500E-01
 -1       433 1.00000E+00 8.75000E-01 1.00000E+00
 -1       434 1.00000E+00 1.00000E+00 1.00000E+00
 -1       435 8.75000E-01 8.75000E-01 1.00000E+00
 -1       436 8.75000E-01 1.00000E+00 1.00000E+00
 -1       437 1.00000E+00 8.75000E-01 9.37500E-01
 -1       438 1.00000E+00 9.37500E-01 1.00000E+00
 -1       439 1.00000E+00 1.00000E+00 9.37500E-01
 -1       440 9.37500E-01 8.75000E-01 1.00000E+00
 -1       441 9.37500E-01 1.00000E+00 1.00000E+00
 -1       442 8.75000E-01 8.75000E-01 9.37500E-01
 -1       443 8.75000E-01 9.37500E-01 1.00000E+00
 -1       444 8.75000E-01 1.00000E+00 9.37500E-01
 -1       445 7.50000E-01 1.00000E+00 0.00000E+00
 -1       446 7.50000E-01 8.75000E-01 0.00000E+00
 -1       447 7.50000E-01 8.75000E-01 1.25000E-01
 -1       448 7.50000E-01 1.00000E+00 1.25000E-01
 -1       449 8.12500E-01 1.00000E+00 0.00000E+00
 -1       450 8.12500E-01 8.75000E-01 0.00000E+00
 -1       451 8.12500E-01 8.75000E-01 1.25000E-01
 -1       452 8.12500E-01 1.00000E+00 1.25000E-01
 -1       453 7.50000E-01 9.37500E-01 0.00000E+00
 -1       454 7.50000E-01 8.75000E-01 6.25000E-02
 -1       455 7.50000E-01 9.37500E-01 1.25000E-01
 -1       456 7.50000E-01 1.00000E+00 6.25000E-02
 -1       457 7.50000E-01 8.75000E-01 2.50000E-01
 -1       458 7.50000E-01 1.00000E+00 2.50000E-01
 -1       459 8.12500E-01 8.75000E-01 2.50000E-01
 -1       460 8.12500E-01 1.00000E+00 2.50000E-01
 -1       461 7.50000E-01 8.75000E-01 1.87500E-01
 -1       462 7.50000E-01 9.37500E-01 2.50000E-01
 -1       463 7.50000E-01 1.00000E+00 1.87500E-01
 -1       464 7.50000E-01 8.75000E-01 3.75000E-01
 -1       465 7.50000E-01 1.00000E+00 3.75000E-01
 -1       466 8.12500E-01 8.75000E-01 3.75000E-01
 -1       467 8.12500E-01 1.00000E+00 3.75000E-01
 -1       468 7.50000E-01 8.75000E-01 3.12500E-01
 -1       469 7.50000E-01 9.37500E-01 3.75000E-01
 -1       470 7.50000E-01 1.00000E+00 3.12500E-01
 -1       471 7.50000E-01 8.75000E-01 5.00000E-01
 -1       472 7.50000E-01 1.00000E+00 5.00000E-01
 -1       473 8.12500E-01 8.75000E-01 5.00000E-01
 -1       474 8.12500E-01 1.00000E+00 5.00000E-01
 -1       475 7.50000E-01 8.75000E-01 4.37500E-01
 -1       476 7.50000E-01 9.37500E-01 5.00000E-01
 -1       477 7.50000E-01 1.00000E+00 4.37500E-01
 -1       478 7.50000E-01 8.75000E-01 6.25000E-01
 -1       479 7.50000E-01 1.00000E+00 6.25000E-01
 -1       480 8.12500E-01 8.75000E-01 6.25000E-01
 -1       481 8.12500E-01 1.00000E+00 6.25000E-01
 -1       482 7.50000E-01 8.75000E-01 5.62500E-01
 -1       483 7.50000E-01 9.37500E-01 6.25000E-01
 -1       484 7.50000E-01 1.00000E+00 5.62500E-01
 -1       485 7.50000E-01 8.75000E-01 7.50000E-01
 -1       486 7.50000E-01 1.00000E+00 7.50000E-01
 -1       487 8.12500E-01 8.75000E-01 7.50000E-01
 -1       488 8.12500E-01 1.00000E+00 7.50000E-01
 -1       489 7.50000E-01 8.75000E-01 6.87500E-01
 -1       490 7.50000E-01 9.37500E-01 7.50000E-01
 -1       491 7.50000E-01 1.00000E+00 6.87500E-01
 -1       492 7.50000E-01 8.75000E-01 8.75000E-01
 -1       493 7.50000E-01 1.00000E+00 8.75000E-01
 -1       494 8.12500E-01 8.75000E-01 8.75000E-01
 -1       495 8.12500E-01 1.00000E+00 8.75000E-01
 -1       496 7.50000E-01 8.75000E-01 8.12500E-01
 -1       497 7.50000E-01 9.37500E-01 8.75000E-01
 -1       498 7.50000E-01 1.00000E+00 8.12500E-01
 -1       499 7.50000E-01 8.75000E-01 1.00000E+00
 -1       500 7.50000E-01 1.00000E+00 1.00000E+00
 -1       501 8.12500E-01 8.75000E-01 1.00000E+00
 -1       502 8.12500E-01 1.00000E+00 1.00000E+00
 -1       503 7.50000E-01 8.75000E-01 9.37500E-01
 -1       504 7.50000E-01 9.37500E-01 1.00000E+00
 -1       505 7.50000E-01 1.00000E+00 9.37500E-01
 -1       506 6.25000E-01 1.00000E+00 0.00000E+00
 -1       507 6.25000E-01 8.75000E-01 0.00000E+00
 -1       508 6.25000E-01 8.75000E-01 1.25000E-01
 -1       509 6.25000E-01 1.00000E+00 1.25000E-01
 -1       510 6.87500E-01 1.00000E+00 0.00000E+00
 -1       511 6.87500E-01 8.75000E-01 0.00000E+00
 -1       512 6.87500E-01 8.75000E-01 1.25000E-01
 -1       513 6.87500E-01 1.00000E+00 1.25000E-01
 -1       514 6.25000E-01 9.37500E-01 0.00000E+00
 -1       515 6.25000E-01 8.75000E-01 6.25000E-02
 -1       516 6.25000E-01 9.37500E-01 1.25000E-01
 -1       517 6.25000E-01 1.00000E+00 6.25000E-02
 -1       518 6.25000E-01 8.75000E-01 2.50000E-01
 -1       519 6.25000E-01 1.00000E+00 2.50000E-01
 -1       520 6.87500E-01 8.75000E-01 2.50000E-01
 -1       521 6.87500E-01 1.00000E+00 2.50000E-01
 -1       522 6.25000E-01 8.75000E-01 1.87500E-01
 -1       523 6.25000E-01 9.37500E-01 2.50000E-01
 -1       524 6.25000E-01 1.00000E+00 1.87500E-01
 -1       525 6.25000E-01 8.75000E-01 3.75000E-01
 -1       526 6.25000E-01 1.00000E+00 3.75000E-01
 -1       527 6.87500E-01 8.75000E-01 3.75000E-01
 -1       528 6.87500E-01 1.00000E+00 3.75000E-01
 -1       529 6.25000E-01 8.75000E-01 3.12500E-01
 -1       530 6.25000E-01 9.37500E-01 3.75000E-01
 -1       531 6.25000E-01 1.00000E+00 3.12500E-01
 -1       532 6.25000E-01 8.75000E-01 5.00000E-01
 -1       533 6.25000E-01 1.00000E+00 5.00000E-01
 -1       534 6.87500E-01 8.75000E-01 5.00000E-01
 -1       535 6.87500E-01 1.00000E+00 5.00000E-01
 -1       536 6.25000E-01 8.75000E-01 4.37500E-01
 -1       537 6.25000E-01 9.37500E-01 5.00000E-01
 -1       538 6.25000E-01 1.00000E+00 4.37500E-01
 -1       539 6.25000E-01 8.75000E-01 6.25000E-01
 -1       540 6.25000E-01 1.00000E+00 6.25000E-01
 -1       541 6.87500E-01 8.75000E-01 6.25000E-01
 -1       542 6.87500E-01 1.00000E+00 6.25000E-01
 -1       543 6.25000E-01 8.75000E-01 5.62500E-01
 -1       544 6.25000E-01 9.37500E-01 6.25000E-01
 -1       545 6.25000E-01 1.00000E+00 5.62500E-01
 -1       546 6.25000E-01 8.75000E-01 7.50000E-01
 -1       547 6.25000E-01 1.00000E+00 7.50000E-01
 -1       548 6.87500E-01 8.75000E-01 7.50000E-01
 -1       549 6.87500E-01 1.00000E+00 7.50000E-01
 -1       550 6.25000E-01 8.75000E-01 6.87500E-01
 -1       551 6.25000E-01 9.37500E-01 7.50000E-01
 -1       552 6.25000E-01 1.00000E+00 6.87500E-01
 -1       553 6.25000E-01 8.75000E-01 8.75000E-01
 -1       554 6.25000E-01 1.00000E+00 8.75000E-01
 -1       555 6.87500E-01 8.75000E-01 8.75000E-01
 -1       556 6.87500E-01 1.00000E+00 8.75000E-01
 -1       557 6.25000E-01 8.75000E-01 8.12500E-01
 -1       558 6.25000E-01 9.37500E-01 8.75000E-01
 -1       559 6.25000E-01 1.00000E+00 8.12500E-01
 -1       560 6.25000E-01 8.75000E-01 1.00000E+00
 -1       561 6.25000E-01 1.00000E+00 1.00000E+00
 -1       562 6.87500E-01 8.75000E-01 1.00000E+00
 -1       563 6.87500E-01 1.00000E+00 1.00000E+00
 -1       564 6.25000E-01 8.75000E-01 9.37500E-01
 -1       565 6.25000E-01 9.37500E-01 1.00000E+00
 -1       566 6.25000E-01 1.00000E+00 9.37500E-01
 -1       567 5.00000E-01 1.00000E+00 0.00000E+00
 -1       568 5.00000E-01 8.75000E-01 0.00000E+00
 -1       569 5.00000E-01 8.75000E-01 1.25000E-01
 -1       570 5.00000E-01 1.00000E+00 1.25000E-01
 -1       571 5.62500E-01 1.00000E+00 0.00000E+00
 -1       572 5.62500E-01 8.75000E-01 0.00000E+00
 -1       573 5.62500E-01 8.75000E-01 1.25000E-01
 -1       574 5.62500E-01 1.00000E+00 1.25000E-01
 -1       575 5.00000E-01 9.37500E-01 0.00000E+00
 -1       576 5.00000E-01 8.75000E-01 6.25000E-02
 -1       577 5.00000E-01 9.37500E-01 1.25000E-01
 -1       578 5.00000E-01 1.00000E+00 6.25000E-02
 -1       579 5.00000E-01 8.75000E-01 2.50000E-01
 -1       580 5.00000E-01 1.00000E+00 2.50000E-01
 -1       581 5.62500E-01 8.75000E-01 2.50000E-01
 -1       582 5.62500E-01 1.00000E+00 2.50000E-01
 -1       583 5.00000E-01 8.75000E-01 1.87500E-01
 -1       584 5.00000E-01 9.37500E-01 2.50000E-01
 -1       585 5.00000E-01 1.00000E+00 1.87500E-01
 -1       586 5.00000E-01 8.75000E-01 3.75000E-01
 -1       587 5.00000E-01 1.00000E+00 3.75000E-01
 -1       588 5.62500E-01 8.75000E-01 3.75000E-01
 -1       589 5.62500E-01 1.00000E+00 3.75000E-01
 -1       590 5.00000E-01 8.75000E-01 3.12500E-01
 -1       591 5.00000E-01 9.37500E-01 3.75000E-01
 -1       592 5.00000E-01 1.00000E+00 3.12500E-01
 -1       593 5.00000E-01 8.75000E-01 5.00000E-01
 -1       594 5.00000E-01 1.00000E+00 5.00000E-01
 -1       595 5.62500E-01 8.75000E-01 5.00000E-01
 -1       596 5.62500E-01 1.00000E+00 5.00000E-01
 -1       597 5.00000E-01 8.75000E-01 4.37500E-01
 -1       598 5.00000E-01 9.37500E-01 5.00000E-01
 -1       599 5.00000E-01 1.00000E+00 4.37500E-01
 -1       600 5.00000E-01 8.75000E-01 6.25000E-01
 -1       601 5.00000E-01 1.00000E+00 6.25000E-01
 -1       602 5.62500E-01 8.75000E-01 6.25000E-01
 -1       603 5.62500E-01 1.00000E+00 6.25000E-01
 -1       604 5.00000E-01 8.75000E-01 5.62500E-01
 -1       605 5.00000E-01 9.37500E-01 6.25000E-01
 -1       606 5.00000E-01 1.00000E+00 5.62500E-01
 -1       607 5.00000E-01 8.75000E-01 7.50000E-01
 -1       608 5.00000E-01 1.00000E+00 7.50000E-01
 -1       609 5.62500E-01 8.75000E-01 7.50000E-01
 -1       610 5.62500E-01 1.00000E+00 7.50000E-01
 -1       611 5.00000E-01 8.75000E-01 6.87500E-01
 -1       612 5.00000E-01 9.37500E-01 7.50000E-01
 -1       613 5.00000E-01 1.00000E+00 6.87500E-01
 -1       614 5.00000E-01 8.75000E-01 8.75000E-01
 -1       615 5.00000E-01 1.00000E+00 8.75000E-01
 -1       616 5.62500E-01 8.75000E-01 8.75000E-01
 -1       617 5.62500E-01 1.00000E+00 8.75000E-01
 -1       618 5.00000E-01 8.75000E-01 8.12500E-01
 -1       619 5.00000E-01 9.37500E-01 8.75000E-01
 -1       620 5.00000E-01 1.00000E+00 8.12500E-01
 -1       621 5.00000E-01 8.75000E-01 1.00000E+00
 -1       622 5.00000E-01 1.00000E+00 1.00000E+00
 -1       623 5.62500E-01 8.75000E-01 1.00000E+00
 -1       624 5.62500E-01 1.00000E+00 1.00000E+00
 -1       625 5.00000E-01 8.75000E-01 9.37500E-01
 -1       626 5.00000E-01 9.37500E-01 1.00000E+00
 -1       627 5.00000E-01 1.00000E+00 9.37500E-01
 -1       628 3.75000E-01 1.00000E+00 0.00000E+00
 -1       629 3.75000E-01 8.75000E-01 0.00000E+00
 -1       630 3.75000E-01 8.75000E-01 1.25000E-01
 -1       631 3.75000E-01 1.00000E+00 1.25000E-01
 -1       632 4.37500E-01 1.00000E+00 0.00000E+00
 -1       633 4.37500E-01 8.75000E-01 0.00000E+00
 -1       634 4.37500E-01 8.75000E-01 1.25000E-01
 -1       635 4.37500E-01 1.00000E+00 1.25000E-01
 -1       636 3.75000E-01 9.37500E-01 0.00000E+00
 -1       637 3.75000E-01 8.75000E-01 6.25000E-02
 -1       638 3.75000E-01 9.37500E-01 1.25000E-01
 -1       639 3.75000E-01 1.00000E+00 6.25000E-02
 -1       640 3.75000E-01 8.75000E-01 2.50000E-01
 -1       641 3.75000E-01 1.00000E+00 2.50000E-01
 -1       642 4.37500E-01 8.75000E-01 2.50000E-01
 -1       643 4.37500E-01 1.00000E+00 2.50000E-01
 -1       644 3.75000E-01 8.75000E-01 1.87500E-01
 -1       645 3.75000E-01 9.37500E-01 2.50000E-01
 -1       646 3.75000E-01 1.00000E+00 1.87500E-01
 -1       647 3.75000E-01 8.75000E-01 3.75000E-01
 -1       648 3.75000E-01 1.00000E+00 3.75000E-01
 -1       649 4.37500E-01 8.75000E-01 3.75000E-01
 -1       650 4.37500E-01 1.00000E+00 3.75000E-01
 -1       651 3.75000E-01 8.75000E-01 3.12500E-01
 -1       652 3.75000E-01 9.37500E-01 3.75000E-01
 -1       653 3.75000E-01 1.00000E+00 3.12500E-01
 -1       654 3.75000E-01 8.75000E-01 5.00000E-01
 -1       655 3.75000E-01 1.00000E+00 5.00000E-01
 -1       656 4.37500E-01 8.75000E-01 5.00000E-01
 -1       657 4.37500E-01 1.00000E+00 5.00000E-01
 -1       658 3.75000E-01 8.75000E-01 4.37500E-01
 -1       659 3.75000E-01 9.37500E-01 5.00000E-01
 -1       660 3.75000E-01 1.00000E+00 4.37500E-01
 -1       661 3.75000E-01 8.75000E-01 6.25000E-01
 -1       662 3.75000E-01 1.00000E+00 6.25000E-01
 -1       663 4.37500E-01 8.75000E-01 6.25000E-01
 -1       664 4.37500E-01 1.00000E+00 6.25000E-01
 -1       665 3.75000E-01 8.75000E-01 5.62500E-01
 -1       666 3.75000E-01 9.37500E-01 6.25000E-01
 -1       667 3.75000E-01 1.00000E+00 5.62500E-01
 -1       668 3.75000E-01 8.75000E-01 7.50000E-01
 -1       669 3.75000E-01 1.00000E+00 7.50000E-01
 -1       670 4.37500E-01 8.75000E-01 7.50000E-01
 -1       671 4.37500E-01 1.00000E+00 7.50000E-01
 -1       672 3.75000E-01 8.75000E-01 6.87500E-01
 -1       673 3.75000E-01 9.37500E-01 7.50000E-01
 -1       674 3.75000E-01 1.00000E+00 6.87500E-01
 -1       675 3.75000E-01 8.75000E-01 8.75000E-01
 -1       676 3.75000E-01 1.00000E+00 8.75000E-01
 -1       677 4.37500E-01 8.75000E-01 8.75000E-01
 -1       678 4.37500E-01 1.00000E+00 8.75000E-01
 -1       679 3.75000E-01 8.75000E-01 8.12500E-01
 -1       680 3.75000E-01 9.37500E-01 8.75000E-01
 -1       681 3.75000E-01 1.00000E+00 8.12500E-01
 -1       682 3.75000E-01 8.75000E-01 1.00000E+00
 -1       683 3.75000E-01 1.00000E+00 1.00000E+00
 -1       684 4.37500E-01 8.75000E-01 1.00000E+00
 -1       685 4.37500E-01 1.00000E+00 1.00000E+00
 -1       686 3.75000E-01 8.75000E-01 9.37500E-01
 -1       687 3.75000E-01 9.37500E-01 1.00000E+00
 -1       688 3.75000E-01 1.00000E+00 9.37500E-01
 -1       689 2.50000E-01 1.00000E+00 0.00000E+00
 -1       690 2.50000E-01 8.75000E-01 0.00000E+00
 -1       691 2.50000E-01 8.75000E-01 1.25000E-01
 -1       692 2.50000E-01 1.00000E+00 1.25000E-01
 -1       693 3.12500E-01 1.00000E+00 0.00000E+00
 -1       694 3.12500E-01 8.75000E-01 0.00000E+00
 -1       695 3.12500E-01 8.75000E-01 1.25000E-01
 -1       696 3.12500E-01 1.00000E+00 1.25000E-01
 -1       697 2.50000E-01 9.37500E-01 0.00000E+00
 -1       698 2.50000E-01 8.75000E-01 6.25000E-02
 -1       699 2.50000E-01 9.37500E-01 1.25000E-01
 -1       700 2.50000E-01 1.00000E+00 6.25000E-02
 -1       701 2.50000E-01 8.75000E-01 2.50000E-01
 -1       702 2.50000E-01 1.00000E+00 2.50000E-01
 -1       703 3.12500E-01 8.75000E-01 2.50000E-01
 -1       704 3.12500E-01 1.00000E+00 2.50000E-01
 -1       705 2.50000E-01 8.75000E-01 1.87500E-01
 -1       706 2.50000E-01 9.37500E-01 2.50000E-01
 -1       707 2.50000E-01 1.00000E+00 1.87500E-01
 -1       708 2.50000E-01 8.75000E-01 3.75000E-01
 -1       709 2.50000E-01 1.00000E+00 3.75000E-01
 -1       710 3.12500E-01 8.75000E-01 3.75000E-01
 -1       711 3.12500E-01 1.00000E+00 3.75000E-01
 -1       712 2.50000E-01 8.75000E-01 3.12500E-01
 -1       713 2.50000E-01 9.37500E-01 3.75000E-01
 -1       714 2.50000E-01 1.00000E+00 3.12500E-01
 -1       715 2.50000E-01 8.75000E-01 5.00000E-01
 -1       716 2.50000E-01 1.00000E+00 5.00000E-01
 -1       717 3.12500E-01 8.75000E-01 5.00000E-01
 -1       718 3.12500E-01 1.00000E+00 5.00000E-01
 -1       719 2.50000E-01 8.75000E-01 4.37500E-01
 -1       720 2.50000E-01 9.37500E-01 5.00000E-01
 -1       721 2.50000E-01 1.00000E+00 4.37500E-01
 -1       722 2.50000E-01 8.75000E-01 6.25000E-01
 -1       723 2.50000E-01 1.00000E+00 6.25000E-01
 -1       724 3.12500E-01 8.75000E-01 6.25000E-01
 -1       725 3.12500E-01 1.00000E+00 6.25000E-01
 -1       726 2.50000E-01 8.75000E-01 5.62500E-01
 -1       727 2.50000E-01 9.37500E-01 6.25000E-01
 -1       728 2.50000E-01 1.00000E+00 5.62500E-01
 -1       729 2.50000E-01 8.75000E-01 7.50000E-01
 -1       730 2.50000E-01 1.00000E+00 7.50000E-01
 -1       731 3.12500E-01 8.75000E-01 7.50000E-01
 -1       732 3.12500E-01 1.00000E+00 7.50000E-01
 -1       733 2.50000E-01 8.75000E-01 6.87500E-01
 -1       734 2.50000E-01 9.37500E-01 7.50000E-01
 -1       735 2.50000E-01 1.00000E+00 6.87500E-01
 -1       736 2.50000E-01 8.75000E-01 8.75000E-01
 -1       737 2.50000E-01 1.00000E+00 8.75000E-01
 -1       738 3.12500E-01 8.75000E-01 8.75000E-01
 -1       739 3.12500E-01 1.00000E+00 8.75000E-01
 -1       740 2.50000E-01 8.75000E-01 8.12500E-01
 -1       741 2.50000E-01 9.37500E-01 8.75000E-01
 -1       742 2.50000E-01 1.00000E+00 8.12500E-01
 -1       743 2.50000E-01 8.75000E-01 1.00000E+00
 -1       744 2.50000E-01 1.00000E+00 1.00000E+00
 -1       745 3.12500E-01 8.75000E-01 1.00000E+00
 -1       746 3.12500E-01 1.00000E+00 1.00000E+00
 -1       747 2.50000E-01 8.75000E-01 9.37500E-01
 -1       748 2.50000E-01 9.37500E-01 1.00000E+00
 -1       749 2.50000E-01 1.00000E+00 9.37500E-01
 -1       750 1.25000E-01 1.00000E+00 0.00000E+00
 -1       751 1.25000E-01 8.75000E-01 0.00000E+00
 -1       752 1.25000E-01 8.75000E-01 1.25000E-01
 -1       753 1.25000E-01 1.00000E+00 1.25000E-01
 -1       754 1.87500E-01 1.00000E+00 0.00000E+00
 -1       755 1.87500E-01 8.75000E-01 0.00000E+00
 -1       756 1.87500E-01 8.75000E-01 1.25000E-01
 -1       757 1.87500E-01 1.00000E+00 1.25000E-01
 -1       758 1.25000E-01 9.37500E-01 0.00000E+00
 -1       759 1.25000E-01 8.75000E-01 6.25000E-02
 -1       760 1.25000E-01 9.37500E-01 1.25000E-01
 -1       761 1.25000E-01 1.00000E+00 6.25000E-02
 -1       762 1.25000E-01 8.75000E-01 2.50000E-01
 -1       763 1.25000E-01 1.00000E+00 2.50000E-01
 -1       764 1.87500E-01 8.75000E-01 2.50000E-01
 -1       765 1.87500E-01 1.00000E+00 2.50000E-01
 -1       766 1.25000E-01 8.75000E-01 1.87500E-01
 -1       767 1.25000E-01 9.37500E-01 2.50000E-01
 -1       768 1.25000E-01 1.00000E+00 1.87500E-01
 -1       769 1.25000E-01 8.75000E-01 3.75000E-01
 -1       770 1.25000E-01 1.00000E+00 3.75000E-01
 -1       771 1.87500E-01 8.75000E-01 3.75000E-01
 -1       772 1.87500E-01 1.00000E+00 3.75000E-01
 -1       773 1.25000E-01 8.75000E-01 3.12500E-01
 -1       774 1.25000E-01 9.37500E-01 3.75000E-01
 -1       775 1.25000E-01 1.00000E+00 3.12500E-01
 -1       776 1.25000E-01 8.75000E-01 5.00000E-01
 -1       777 1.25000E-01 1.00000E+00 5.00000E-01
 -1       778 1.87500E-01 8.75000E-01 5.00000E-01
 -1       779 1.87500E-01 1.00000E+00 5.00000E-01
 -1       780 1.25000E-01 8.75000E-01 4.37500E-01
 -1       781 1.25000E-01 9.37500E-01 5.00000E-01
 -1       782 1.25000E-01 1.00000E+00 4.37500E-01
 -1       783 1.25000E-01 8.75000E-01 6.25000E-01
 -1       784 1.25000E-01 1.00000E+00 6.25000E-01
 -1       785 1.87500E-01 8.75000E-01 6.25000E-01
 -1       786 1.87500E-01 1.00000E+00 6.25000E-01
 -1       787 1.25000E-01 8.75000E-01 5.62500E-01
 -1       788 1.25000E-01 9.37500E-01 6.25000E-01
 -1       789 1.25000E-01 1.00000E+00 5.62500E-01
 -1       790 1.25000E-01 8.75000E-01 7.50000E-01
 -1       791 1.25000E-01 1.00000E+00 7.50000E-01
 -1       792 1.87500E-01 8.75000E-01 7.50000E-01
 -1       793 1.87500E-01 1.00000E+00 7.50000E-01
 -1       794 1.25000E-01 8.75000E-01 6.87500E-01
 -1       795 1.25000E-01 9.37500E-01 7.50000E-01
 -1       796 1.25000E-01 1.00000E+00 6.87500E-01
 -1       797 1.25000E-01 8.75000E-01 8.75000E-01
 -1       798 1.25000E-01 1.00000E+00 8.75000E-01
 -1       799 1.87500E-01 8.75000E-01 8.75000E-01
 -1       800 1.87500E-01 1.00000E+00 8.75000E-01
 -1       801 1.25000E-01 8.75000E-01 8.12500E-01
 -1       802 1.25000E-01 9.37500E-01 8.75000E-01
 -1       803 1.25000E-01 1.00000E+00 8.12500E-01
 -1       804 1.25000E-01 8.75000E-01 1.00000E+00
 -1       805 1.25000E-01 1.00000E+00 1.00000E+00
 -1       806 1.87500E-01 8.75000E-01 1.00000E+00
 -1       807 1.87500E-01 1.00000E+00 1.00000E+00
 -1       808 1.25000E-01 8.75000E-01 9.37500E-01
 -1       809 1.25000E-01 9.37500E-01 1.00000E+00
 -1       810 1.25000E-01 1.00000E+00 9.37500E-01
 -1       811 0.00000E+00 1.00000E+00 0.00000E+00
 -1       812 0.00000E+00 8.75000E-01 0.00000E+00
 -1       813 0.00000E+00 8.75000E-01 1.25000E-01
 -1       814 0.00000E+00 1.00000E+00 1.25000E-01
 -1       815 6.25000E-02 1.00000E+00 0.00000E+00
 -1       816 6.25000E-02 8.75000E-01 0.00000E+00
 -1       817 6.25000E-02 8.75000E-01 1.25000E-01
 -1       818 6.25000E-02 1.00000E+00 1.25000E-01
 -1       819 0.00000E+00 9.37500E-01 0.00000E+00
 -1       820 0.00000E+00 8.75000E-01 6.25000E-02
 -1       821 0.00000E+00 9.37500E-01 1.25000E-01
 -1       822 0.00000E+00 1.00000E+00 6.25000E-02
 -1       823 0.00000E+00 8.75000E-01 2.50000E-01
 -1       824 0.00000E+00 1.00000E+00 2.50000E-01
 -1       825 6.25000E-02 8.75000E-01 2.50000E-01
 -1       826 6.25000E-02 1.00000E+00 2.50000E-01
 -1       827 0.00000E+00 8.75000E-01 1.87500E-01
 -1       828 0.00000E+00 9.37500E-01 2.50000E-01
 -1       829 0.00000E+00 1.00000E+00 1.87500E-01
 -1       830 0.00000E+00 8.75000E-01 3.75000E-01
 -1       831 0.00000E+00 1.00000E+00 3.75000E-01
 -1       832 6.25000E-02 8.75000E-01 3.75000E-01
 -1       833 6.25000E-02 1.00000E+00 3.75000E-01
 -1       834 0.00000E+00 8.75000E-01 3.12500E-01
 -1       835 0.00000E+00 9.37500E-01 3.75000E-01
 -1       836 0.00000E+00 1.00000E+00 3.12500E-01
 -1       837 0.00000E+00 8.75000E-01 5.00000E-01
 -1       838 0.00000E+00 1.00000E+00 5.00000E-01
 -1       839 6.25000E-02 8.75000E-01 5.00000E-01
 -1       840 6.25000E-02 1.00000E+00 5.00000E-01
 -1       841 0.00000E+00 8.75000E-01 4.37500E-01
 -1       842 0.00000E+00 9.37500E-01 5.00000E-01
 -1       843 0.00000E+00 1.00000E+00 4.37500E-01
 -1       844 0.00000E+00 8.75000E-01 6.25000E-01
 -1       845 0.00000E+00 1.00000E+00 6.25000E-01
 -1       846 6.25000E-02 8.75000E-01 6.25000E-01
 -1       847 6.25000E-02 1.00000E+00 6.25000E-01
 -1       848 0.00000E+00 8.75000E-01 5.62500E-01
 -1       849 0.00000E+00 9.37500E-01 6.25000E-01
 -1       850 0.00000E+00 1.00000E+00 5.62500E-01
 -1       851 0.00000E+00 8.75000E-01 7.50000E-01
 -1       852 0.00000E+00 1.00000E+00 7.50000E-01
 -1       853 6.25000E-02 8.75000E-01 7.50000E-01
 -1       854 6.25000E-02 1.00000E+00 7.50000E-01
 -1       855 0.00000E+00 8.75000E-01 6.87500E-01
 -1       856 0.00000E+00 9.37500E-01 7.50000E-01
 -1       857 0.00000E+00 1.00000E+00 6.87500E-01
 -1       858 0.00000E+00 8.75000E-01 8.75000E-01
 -1       859 0.00000E+00 1.00000E+00 8.75000E-01
 -1       860 6.25000E-02 8.75000E-01 8.75000E-01
 -1       861 6.25000E-02 1.00000E+00 8.75000E-01
 -1       862 0.00000E+00 8.75000E-01 8.12500E-01
 -1       863 0.00000E+00 9.37500E-01 8.75000E-01
 -1       864 0.00000E+00 1.00000E+00 8.12500E-01
 -1       865 0.00000E+00 8.75000E-01 1.00000E+00
 -1       866 0.00000E+00 1.00000E+00 1.00000E+00
 -1       867 6.25000E-02 8.75000E-01 1.00000E+00
 -1       868 6.25000E-02 1.00000E+00 1.00000E+00
 -1       869 0.00000E+00 8.75000E-01 9.37500E-01
 -1       870 0.00000E+00 9.37500E-01 1.00000E+00
 -1       871 0.00000E+00 1.00000E+00 9.37500E-01
 -1       872 1.00000E+00 7.50000E-01 0.00000E+00
 -1       873 1.00000E+00 7.50000E-01 1.25000E-01
 -1       874 8.75000E-01 7.50000E-01 0.00000E+00
 -1       875 8.75000E-01 7.50000E-01 1.25000E-01
 -1       876 1.00000E+00 8.12500E-01 0.00000E+00
 -1       877 1.00000E+00 7.50000E-01 6.25000E-02
 -1       878 1.00000E+00 8.12500E-01 1.25000E-01
 -1       879 9.37500E-01 7.50000E-01 0.00000E+00
 -1       880 9.37500E-01 7.50000E-01 1.25000E-01
 -1       881 8.75000E-01 8.12500E-01 0.00000E+00
 -1       882 8.75000E-01 7.50000E-01 6.25000E-02
 -1       883 8.75000E-01 8.12500E-01 1.25000E-01
 -1       884 1.00000E+00 7.50000E-01 2.50000E-01
 -1       885 8.75000E-01 7.50000E-01 2.50000E-01
 -1       886 1.00000E+00 7.50000E-01 1.87500E-01
 -1       887 1.00000E+00 8.12500E-01 2.50000E-01
 -1       888 9.37500E-01 7.50000E-01 2.50000E-01
 -1       889 8.75000E-01 7.50000E-01 1.87500E-01
 -1       890 8.75000E-01 8.12500E-01 2.50000E-01
 -1       891 1.00000E+00 7.50000E-01 3.75000E-01
 -1       892 8.75000E-01 7.50000E-01 3.75000E-01
 -1       893 1.00000E+00 7.50000E-01 3.12500E-01
 -1       894 1.00000E+00 8.12500E-01 3.75000E-01
 -1       895 9.37500E-01 7.50000E-01 3.75000E-01
 -1       896 8.75000E-01 7.50000E-01 3.12500E-01
 -1       897 8.75000E-01 8.12500E-01 3.75000E-01
 -1       898 1.00000E+00 7.50000E-01 5.00000E-01
 -1       899 8.75000E-01 7.50000E-01 5.00000E-01
 -1       900 1.00000E+00 7.50000E-01 4.37500E-01
 -1       901 1.00000E+00 8.12500E-01 5.00000E-01
 -1       902 9.37500E-01 7.50000E-01 5.00000E-01
 -1       903 8.75000E-01 7.50000E-01 4.37500E-01
 -1       904 8.75000E-01 8.12500E-01 5.00000E-01
 -1       905 1.00000E+00 7.50000E-01 6.25000E-01
 -1       906 8.75000E-01 7.50000E-01 6.25000E-01
 -1       907 1.00000E+00 7.50000E-01 5.62500E-01
 -1       908 1.00000E+00 8.12500E-01 6.25000E-01
 -1       909 9.37500E-01 7.50000E-01 6.25000E-01
 -1       910 8.75000E-01 7.50000E-01 5.62500E-01
 -1       911 8.75000E-01 8.12500E-01 6.25000E-01
 -1       912 1.00000E+00 7.50000E-01 7.50000E-01
 -1       913 8.75000E-01 7.50000E-01 7.50000E-01
 -1       914 1.00000E+00 7.50000E-01 6.87500E-01
 -1       915 1.00000E+00 8.12500E-01 7.50000E-01
 -1       916 9.37500E-01 7.50000E-01 7.50000E-01
 -1       917 8.75000E-01 7.50000E-01 6.87500E-01
 -1       918 8.75000E-01 8.12500E-01 7.50000E-01
 -1       919 1.00000E+00 7.50000E-01 8.75000E-01
 -1       920 8.75000E-01 7.50000E-01 8.75000E-01
 -1       921 1.00000E+00 7.50000E-01 8.12500E-01
 -1       922 1.00000E+00 8.12500E-01 8.75000E-01