    1C
    1UModel: beam     Date: 10-Mar-1998                                 
    1UUSER                                                              
    1UDATE              24.november.2019                                
    1UTIME              19:37:45                                        
    1UHOST                                                              
    1UPGM               CalculiX                                        
    1UVERSION           Version 2.16                             
    1UCOMPILETIME       So 24. Nov 18:30:58 CET 2019                    
    1UDIR                                                               
    1UDBN                                                               
    1UMAT    1EL                                                        
    2C                           261                                     1
 -1         1 0.00000E+00 0.00000E+00 0.00000E+00
 -1         2 1.00000E+00 0.00000E+00 0.00000E+00
 -1         3 1.00000E+00 1.00000E+00 0.00000E+00
 -1         4 0.00000E+00 1.00000E+00 0.00000E+00
 -1         5 0.00000E+00 0.00000E+00 8.00000E+00
 -1         6 1.00000E+00 0.00000E+00 8.00000E+00
 -1         7 1.00000E+00 1.00000E+00 8.00000E+00
 -1         8 0.00000E+00 1.00000E+00 8.00000E+00
 -1         9 2.50000E-01 0.00000E+00 0.00000E+00
 -1        10 5.00000E-01 0.00000E+00 0.00000E+00
 -1        11 7.50000E-01 0.00000E+00 0.00000E+00
 -1        12 1.00000E+00 2.50000E-01 0.00000E+00
 -1        13 1.00000E+00 5.00000E-01 0.00000E+00
 -1        14 1.00000E+00 7.50000E-01 0.00000E+00
 -1        15 7.50000E-01 1.00000E+00 0.00000E+00
 -1        16 5.00000E-01 1.00000E+00 0.00000E+00
 -1        17 2.50000E-01 1.00000E+00 0.00000E+00
 -1        18 0.00000E+00 7.50000E-01 0.00000E+00
 -1        19 0.00000E+00 5.00000E-01 0.00000E+00
 -1        20 0.00000E+00 2.50000E-01 0.00000E+00
 -1        21 2.50000E-01 0.00000E+00 8.00000E+00
 -1        22 5.00000E-01 0.00000E+00 8.00000E+00
 -1        23 7.50000E-01 0.00000E+00 8.00000E+00
 -1        24 1.00000E+00 2.50000E-01 8.00000E+00
 -1        25 1.00000E+00 5.00000E-01 8.00000E+00
 -1        26 1.00000E+00 7.50000E-01 8.00000E+00
 -1        27 7.50000E-01 1.00000E+00 8.00000E+00
 -1        28 5.00000E-01 1.00000E+00 8.00000E+00
 -1        29 2.50000E-01 1.00000E+00 8.00000E+00
 -1        30 0.00000E+00 7.50000E-01 8.00000E+00
 -1        31 0.00000E+00 5.00000E-01 8.00000E+00
 -1        32 0.00000E+00 2.50000E-01 8.00000E+00
 -1        33 1.00000E+00 0.00000E+00 5.00000E-01
 -1        34 1.00000E+00 0.00000E+00 1.00000E+00
 -1        35 1.00000E+00 0.00000E+00 1.50000E+00
 -1        36 1.00000E+00 0.00000E+00 2.00000E+00
 -1        37 1.00000E+00 0.00000E+00 2.50000E+00
 -1        38 1.00000E+00 0.00000E+00 3.00000E+00
 -1        39 1.00000E+00 0.00000E+00 3.50000E+00
 -1        40 1.00000E+00 0.00000E+00 4.00000E+00
 -1        41 1.00000E+00 0.00000E+00 4.50000E+00
 -1        42 1.00000E+00 0.00000E+00 5.00000E+00
 -1        43 1.00000E+00 0.00000E+00 5.50000E+00
 -1        44 1.00000E+00 0.00000E+00 6.00000E+00
 -1        45 1.00000E+00 0.00000E+00 6.50000E+00
 -1        46 1.00000E+00 0.00000E+00 7.00000E+00
 -1        47 1.00000E+00 0.00000E+00 7.50000E+00
 -1        48 0.00000E+00 0.00000E+00 7.50000E+00
 -1        49 0.00000E+00 0.00000E+00 7.00000E+00
 -1        50 0.00000E+00 0.00000E+00 6.50000E+00
 -1        51 0.00000E+00 0.00000E+00 6.00000E+00
 -1        52 0.00000E+00 0.00000E+00 5.50000E+00
 -1        53 0.00000E+00 0.00000E+00 5.00000E+00
 -1        54 0.00000E+00 0.00000E+00 4.50000E+00
 -1        55 0.00000E+00 0.00000E+00 4.00000E+00
 -1        56 0.00000E+00 0.00000E+00 3.50000E+00
 -1        57 0.00000E+00 0.00000E+00 3.00000E+00
 -1        58 0.00000E+00 0.00000E+00 2.50000E+00
 -1        59 0.00000E+00 0.00000E+00 2.00000E+00
 -1        60 0.00000E+00 0.00000E+00 1.50000E+00
 -1        61 0.00000E+00 0.00000E+00 1.00000E+00
 -1        62 0.00000E+00 0.00000E+00 5.00000E-01
 -1        63 1.00000E+00 1.00000E+00 5.00000E-01
 -1        64 1.00000E+00 1.00000E+00 1.00000E+00
 -1        65 1.00000E+00 1.00000E+00 1.50000E+00
 -1        66 1.00000E+00 1.00000E+00 2.00000E+00
 -1        67 1.00000E+00 1.00000E+00 2.50000E+00
 -1        68 1.00000E+00 1.00000E+00 3.00000E+00
 -1        69 1.00000E+00 1.00000E+00 3.50000E+00
 -1        70 1.00000E+00 1.00000E+00 4.00000E+00
 -1        71 1.00000E+00 1.00000E+00 4.50000E+00
 -1        72 1.00000E+00 1.00000E+00 5.00000E+00
 -1        73 1.00000E+00 1.00000E+00 5.50000E+00
 -1        74 1.00000E+00 1.00000E+00 6.00000E+00
 -1        75 1.00000E+00 1.00000E+00 6.50000E+00
 -1        76 1.00000E+00 1.00000E+00 7.00000E+00
 -1        77 1.00000E+00 1.00000E+00 7.50000E+00
 -1        78 0.00000E+00 1.00000E+00 5.00000E-01
 -1        79 0.00000E+00 1.00000E+00 1.00000E+00
 -1        80 0.00000E+00 1.00000E+00 1.50000E+00
 -1        81 0.00000E+00 1.00000E+00 2.00000E+00
 -1        82 0.00000E+00 1.00000E+00 2.50000E+00
 -1        83 0.00000E+00 1.00000E+00 3.00000E+00
 -1        84 0.00000E+00 1.00000E+00 3.50000E+00
 -1        85 0.00000E+00 1.00000E+00 4.00000E+00
 -1        86 0.00000E+00 1.00000E+00 4.50000E+00
 -1        87 0.00000E+00 1.00000E+00 5.00000E+00
 -1        88 0.00000E+00 1.00000E+00 5.50000E+00
 -1        89 0.00000E+00 1.00000E+00 6.00000E+00
 -1        90 0.00000E+00 1.00000E+00 6.50000E+00
 -1        91 0.00000E+00 1.00000E+00 7.00000E+00
 -1        92 0.00000E+00 1.00000E+00 7.50000E+00
 -1        93 5.00000E-01 2.50000E-01 0.00000E+00
 -1        94 2.50000E-01 5.00000E-01 0.00000E+00
 -1        95 5.00000E-01 5.00000E-01 0.00000E+00
 -1        96 7.50000E-01 5.00000E-01 0.00000E+00
 -1        97 5.00000E-01 7.50000E-01 0.00000E+00
 -1        98 5.00000E-01 2.50000E-01 8.00000E+00
 -1        99 2.50000E-01 5.00000E-01 8.00000E+00
 -1       100 5.00000E-01 5.00000E-01 8.00000E+00
 -1       101 7.50000E-01 5.00000E-01 8.00000E+00
 -1       102 5.00000E-01 7.50000E-01 8.00000E+00
 -1       103 5.00000E-01 0.00000E+00 5.00000E-01
 -1       104 2.50000E-01 0.00000E+00 1.00000E+00
 -1       105 5.00000E-01 0.00000E+00 1.00000E+00
 -1       106 7.50000E-01 0.00000E+00 1.00000E+00
 -1       107 5.00000E-01 0.00000E+00 1.50000E+00
 -1       108 2.50000E-01 0.00000E+00 2.00000E+00
 -1       109 5.00000E-01 0.00000E+00 2.00000E+00
 -1       110 7.50000E-01 0.00000E+00 2.00000E+00
 -1       111 5.00000E-01 0.00000E+00 2.50000E+00
 -1       112 2.50000E-01 0.00000E+00 3.00000E+00
 -1       113 5.00000E-01 0.00000E+00 3.00000E+00
 -1       114 7.50000E-01 0.00000E+00 3.00000E+00
 -1       115 5.00000E-01 0.00000E+00 3.50000E+00
 -1       116 2.50000E-01 0.00000E+00 4.00000E+00
 -1       117 5.00000E-01 0.00000E+00 4.00000E+00
 -1       118 7.50000E-01 0.00000E+00 4.00000E+00
 -1       119 5.00000E-01 0.00000E+00 4.50000E+00
 -1       120 2.50000E-01 0.00000E+00 5.00000E+00
 -1       121 5.00000E-01 0.00000E+00 5.00000E+00
 -1       122 7.50000E-01 0.00000E+00 5.00000E+00
 -1       123 5.00000E-01 0.00000E+00 5.50000E+00
 -1       124 2.50000E-01 0.00000E+00 6.00000E+00
 -1       125 5.00000E-01 0.00000E+00 6.00000E+00
 -1       126 7.50000E-01 0.00000E+00 6.00000E+00
 -1       127 5.00000E-01 0.00000E+00 6.50000E+00
 -1       128 2.50000E-01 0.00000E+00 7.00000E+00
 -1       129 5.00000E-01 0.00000E+00 7.00000E+00
 -1       130 7.50000E-01 0.00000E+00 7.00000E+00
 -1       131 5.00000E-01 0.00000E+00 7.50000E+00
 -1       132 1.00000E+00 5.00000E-01 5.00000E-01
 -1       133 1.00000E+00 2.50000E-01 1.00000E+00
 -1       134 1.00000E+00 5.00000E-01 1.00000E+00
 -1       135 1.00000E+00 7.50000E-01 1.00000E+00
 -1       136 1.00000E+00 5.00000E-01 1.50000E+00
 -1       137 1.00000E+00 2.50000E-01 2.00000E+00
 -1       138 1.00000E+00 5.00000E-01 2.00000E+00
 -1       139 1.00000E+00 7.50000E-01 2.00000E+00
 -1       140 1.00000E+00 5.00000E-01 2.50000E+00
 -1       141 1.00000E+00 2.50000E-01 3.00000E+00
 -1       142 1.00000E+00 5.00000E-01 3.00000E+00
 -1       143 1.00000E+00 7.50000E-01 3.00000E+00
 -1       144 1.00000E+00 5.00000E-01 3.50000E+00
 -1       145 1.00000E+00 2.50000E-01 4.00000E+00
 -1       146 1.00000E+00 5.00000E-01 4.00000E+00
 -1       147 1.00000E+00 7.50000E-01 4.00000E+00
 -1       148 1.00000E+00 5.00000E-01 4.50000E+00
 -1       149 1.00000E+00 2.50000E-01 5.00000E+00
 -1       150 1.00000E+00 5.00000E-01 5.00000E+00
 -1       151 1.00000E+00 7.50000E-01 5.00000E+00
 -1       152 1.00000E+00 5.00000E-01 5.50000E+00
 -1       153 1.00000E+00 2.50000E-01 6.00000E+00
 -1       154 1.00000E+00 5.00000E-01 6.00000E+00
 -1       155 1.00000E+00 7.50000E-01 6.00000E+00
 -1       156 1.00000E+00 5.00000E-01 6.50000E+00
 -1       157 1.00000E+00 2.50000E-01 7.00000E+00
 -1       158 1.00000E+00 5.00000E-01 7.00000E+00
 -1       159 1.00000E+00 7.50000E-01 7.00000E+00
 -1       160 1.00000E+00 5.00000E-01 7.50000E+00
 -1       161 5.00000E-01 1.00000E+00 5.00000E-01
 -1       162 7.50000E-01 1.00000E+00 1.00000E+00
 -1       163 5.00000E-01 1.00000E+00 1.00000E+00
 -1       164 2.50000E-01 1.00000E+00 1.00000E+00
 -1       165 5.00000E-01 1.00000E+00 1.50000E+00
 -1       166 7.50000E-01 1.00000E+00 2.00000E+00
 -1       167 5.00000E-01 1.00000E+00 2.00000E+00
 -1       168 2.50000E-01 1.00000E+00 2.00000E+00
 -1       169 5.00000E-01 1.00000E+00 2.50000E+00
 -1       170 7.50000E-01 1.00000E+00 3.00000E+00
 -1       171 5.00000E-01 1.00000E+00 3.00000E+00
 -1       172 2.50000E-01 1.00000E+00 3.00000E+00
 -1       173 5.00000E-01 1.00000E+00 3.50000E+00
 -1       174 7.50000E-01 1.00000E+00 4.00000E+00
 -1       175 5.00000E-01 1.00000E+00 4.00000E+00
 -1       176 2.50000E-01 1.00000E+00 4.00000E+00
 -1       177 5.00000E-01 1.00000E+00 4.50000E+00
 -1       178 7.50000E-01 1.00000E+00 5.00000E+00
 -1       179 5.00000E-01 1.00000E+00 5.00000E+00
 -1       180 2.50000E-01 1.00000E+00 5.00000E+00
 -1       181 5.00000E-01 1.00000E+00 5.50000E+00
 -1       182 7.50000E-01 1.00000E+00 6.00000E+00
 -1       183 5.00000E-01 1.00000E+00 6.00000E+00
 -1       184 2.50000E-01 1.00000E+00 6.00000E+00
 -1       185 5.00000E-01 1.00000E+00 6.50000E+00
 -1       186 7.50000E-01 1.00000E+00 7.00000E+00
 -1       187 5.00000E-01 1.00000E+00 7.00000E+00
 -1       188 2.50000E-01 1.00000E+00 7.00000E+00
 -1       189 5.00000E-01 1.00000E+00 7.50000E+00
 -1       190 0.00000E+00 5.00000E-01 5.00000E-01
 -1       191 0.00000E+00 7.50000E-01 1.00000E+00
 -1       192 0.00000E+00 5.00000E-01 1.00000E+00
 -1       193 0.00000E+00 2.50000E-01 1.00000E+00
 -1       194 0.00000E+00 5.00000E-01 1.50000E+00
 -1       195 0.00000E+00 7.50000E-01 2.00000E+00
 -1       196 0.00000E+00 5.00000E-01 2.00000E+00
 -1       197 0.00000E+00 2.50000E-01 2.00000E+00
 -1       198 0.00000E+00 5.00000E-01 2.50000E+00
 -1       199 0.00000E+00 7.50000E-01 3.00000E+00
 -1       200 0.00000E+00 5.00000E-01 3.00000E+00
 -1       201 0.00000E+00 2.50000E-01 3.00000E+00
 -1       202 0.00000E+00 5.00000E-01 3.50000E+00
 -1       203 0.00000E+00 7.50000E-01 4.00000E+00
 -1       204 0.00000E+00 5.00000E-01 4.00000E+00
 -1       205 0.00000E+00 2.50000E-01 4.00000E+00
 -1       206 0.00000E+00 5.00000E-01 4.50000E+00
 -1       207 0.00000E+00 7.50000E-01 5.00000E+00
 -1       208 0.00000E+00 5.00000E-01 5.00000E+00
 -1       209 0.00000E+00 2.50000E-01 5.00000E+00
 -1       210 0.00000E+00 5.00000E-01 5.50000E+00
 -1       211 0.00000E+00 7.50000E-01 6.00000E+00
 -1       212 0.00000E+00 5.00000E-01 6.00000E+00
 -1       213 0.00000E+00 2.50000E-01 6.00000E+00
 -1       214 0.00000E+00 5.00000E-01 6.50000E+00
 -1       215 0.00000E+00 7.50000E-01 7.00000E+00
 -1       216 0.00000E+00 5.00000E-01 7.00000E+00
 -1       217 0.00000E+00 2.50000E-01 7.00000E+00
 -1       218 0.00000E+00 5.00000E-01 7.50000E+00
 -1       219 5.00000E-01 5.00000E-01 5.00000E-01
 -1       220 5.00000E-01 2.50000E-01 1.00000E+00
 -1       221 2.50000E-01 5.00000E-01 1.00000E+00
 -1       222 5.00000E-01 5.00000E-01 1.00000E+00
 -1       223 7.50000E-01 5.00000E-01 1.00000E+00
 -1       224 5.00000E-01 7.50000E-01 1.00000E+00
 -1       225 5.00000E-01 5.00000E-01 1.50000E+00
 -1       226 5.00000E-01 2.50000E-01 2.00000E+00
 -1       227 2.50000E-01 5.00000E-01 2.00000E+00
 -1       228 5.00000E-01 5.00000E-01 2.00000E+00
 -1       229 7.50000E-01 5.00000E-01 2.00000E+00
 -1       230 5.00000E-01 7.50000E-01 2.00000E+00
 -1       231 5.00000E-01 5.00000E-01 2.50000E+00
 -1       232 5.00000E-01 2.50000E-01 3.00000E+00
 -1       233 2.50000E-01 5.00000E-01 3.00000E+00
 -1       234 5.00000E-01 5.00000E-01 3.00000E+00
 -1       235 7.50000E-01 5.00000E-01 3.00000E+00
 -1       236 5.00000E-01 7.50000E-01 3.00000E+00
 -1       237 5.00000E-01 5.00000E-01 3.50000E+00
 -1       238 5.00000E-01 2.50000E-01 4.00000E+00
 -1       239 2.50000E-01 5.00000E-01 4.00000E+00
 -1       240 5.00000E-01 5.00000E-01 4.00000E+00
 -1       241 7.50000E-01 5.00000E-01 4.00000E+00
 -1       242 5.00000E-01 7.50000E-01 4.00000E+00
 -1       243 5.00000E-01 5.00000E-01 4.50000E+00
 -1       244 5.00000E-01 2.50000E-01 5.00000E+00
 -1       245 2.50000E-01 5.00000E-01 5.00000E+00
 -1       246 5.00000E-01 5.00000E-01 5.00000E+00
 -1       247 7.50000E-01 5.00000E-01 5.00000E+00
 -1       248 5.00000E-01 7.50000E-01 5.00000E+00
 -1       249 5.00000E-01 5.00000E-01 5.50000E+00
 -1       250 5.00000E-01 2.50000E-01 6.00000E+00
 -1       251 2.50000E-01 5.00000E-01 6.00000E+00
 -1       252 5.00000E-01 5.00000E-01 6.00000E+00
 -1       253 7.50000E-01 5.00000E-01 6.00000E+00
 -1       254 5.00000E-01 7.50000E-01 6.00000E+00
 -1       255 5.00000E-01 5.00000E-01 6.50000E+00
 -1       256 5.00000E-01 2.50000E-01 7.00000E+00
 -1       257 2.50000E-01 5.00000E-01 7.00000E+00
 -1       258 5.00000E-01 5.00000E-01 7.00000E+00
 -1       259 7.50000E-01 5.00000E-01 7.00000E+00
 -1       260 5.00000E-01 7.50000E-01 7.00000E+00
 -1       261 5.00000E-01 5.00000E-01 7.50000E+00
 -3
    3C                            32                                     1
 -1         1    4    0    1
 -2         1        10        95        19        61       105       222       192         9        93
 -2        94        20        62       103       219       190       104       220       221       193
 -1         2    4    0    1
 -2        10         2        13        95       105        34       134       222        11        12
 -2        96        93       103        33       132       219       106       133       223       220
 -1         3    4    0    1
 -2        19        95        16         4       192       222       163        79        94        97
 -2        17        18       190       219       161        78       221       224       164       191
 -1         4    4    0    1
 -2        95        13         3        16       222       134        64       163        96        14
 -2        15        97       219       132        63       161       223       135       162       224
 -1         5    4    0    1
 -2        61       105       222       192        59       109       228       196       104       220
 -2       221       193        60       107       225       194       108       226       227       197
 -1         6    4    0    1
 -2       105        34       134       222       109        36       138       228       106       133
 -2       223       220       107        35       136       225       110       137       229       226
 -1         7    4    0    1
 -2       192       222       163        79       196       228       167        81       221       224
 -2       164       191       194       225       165        80       227       230       168       195
 -1         8    4    0    1
 -2       222       134        64       163       228       138        66       167       223       135
 -2       162       224       225       136        65       165       229       139       166       230
 -1         9    4    0    1
 -2        59       109       228       196        57       113       234       200       108       226
 -2       227       197        58       111       231       198       112       232       233       201
 -1        10    4    0    1
 -2       109        36       138       228       113        38       142       234       110       137
 -2       229       226       111        37       140       231       114       141       235       232
 -1        11    4    0    1
 -2       196       228       167        81       200       234       171        83       227       230
 -2       168       195       198       231       169        82       233       236       172       199
 -1        12    4    0    1
 -2       228       138        66       167       234       142        68       171       229       139
 -2       166       230       231       140        67       169       235       143       170       236
 -1        13    4    0    1
 -2        57       113       234       200        55       117       240       204       112       232
 -2       233       201        56       115       237       202       116       238       239       205
 -1        14    4    0    1
 -2       113        38       142       234       117        40       146       240       114       141
 -2       235       232       115        39       144       237       118       145       241       238
 -1        15    4    0    1
 -2       200       234       171        83       204       240       175        85       233       236
 -2       172       199       202       237       173        84       239       242       176       203
 -1        16    4    0    1
 -2       234       142        68       171       240       146        70       175       235       143
 -2       170       236       237       144        69       173       241       147       174       242
 -1        17    4    0    1
 -2        55       117       240       204        53       121       246       208       116       238
 -2       239       205        54       119       243       206       120       244       245       209
 -1        18    4    0    1
 -2       117        40       146       240       121        42       150       246       118       145
 -2       241       238       119        41       148       243       122       149       247       244
 -1        19    4    0    1
 -2       204       240       175        85       208       246       179        87       239       242
 -2       176       203       206       243       177        86       245       248       180       207
 -1        20    4    0    1
 -2       240       146        70       175       246       150        72       179       241       147
 -2       174       242       243       148        71       177       247       151       178       248
 -1        21    4    0    1
 -2        53       121       246       208        51       125       252       212       120       244
 -2       245       209        52       123       249       210       124       250       251       213
 -1        22    4    0    1
 -2       121        42       150       246       125        44       154       252       122       149
 -2       247       244       123        43       152       249       126       153       253       250
 -1        23    4    0    1
 -2       208       246       179        87       212       252       183        89       245       248
 -2       180       207       210       249       181        88       251       254       184       211
 -1        24    4    0    1
 -2       246       150        72       179       252       154        74       183       247       151
 -2       178       248       249       152        73       181       253       155       182       254
 -1        25    4    0    1
 -2        51       125       252       212        49       129       258       216       124       250
 -2       251       213        50       127       255       214       128       256       257       217
 -1        26    4    0    1
 -2       125        44       154       252       129        46       158       258       126       153
 -2       253       250       127        45       156       255       130       157       259       256
 -1        27    4    0    1
 -2       212       252       183        89       216       258       187        91       251       254
 -2       184       211       214       255       185        90       257       260       188       215
 -1        28    4    0    1
 -2       252       154        74       183       258       158        76       187       253       155
 -2       182       254       255       156        75       185       259       159       186       260
 -1        29    4    0    1
 -2        49       129       258       216         5        22       100        31       128       256
 -2       257       217        48       131       261       218        21        98        99        32
 -1        30    4    0    1
 -2       129        46       158       258        22         6        25       100       130       157
 -2       259       256       131        47       160       261        23        24       101        98
 -1        31    4    0    1
 -2       216       258       187        91        31       100        28         8       257       260
 -2       188       215       218       261       189        92        99       102        29        30
 -1        32    4    0    1
 -2       258       158        76       187       100        25         7        28       259       159
 -2       186       260       261       160        77       189       101        26        27       102
 -3
    1PSTEP                         1           1           1          
  100CL  101 1.000000000         261                     0    1           1
 -4  TOSTRAIN    6    1
 -5  EXX         1    4    1    1
 -5  EYY         1    4    2    2
 -5  EZZ         1    4    3    3
 -5  EXY         1    4    1    2
 -5  EYZ         1    4    2    3
 -5  EZX         1    4    3    1
 -1         1-1.25441E-06-2.72692E-06 1.01834E-05-1.74965E-06-4.78287E-06 1.46257E-06
 -1         2-1.25441E-06-2.72692E-06 1.01834E-05 1.74965E-06-4.78287E-06-1.46257E-06
 -1         3-1.25441E-06-2.72692E-06 1.01834E-05-1.74965E-06 4.78287E-06-1.46257E-06
 -1         4-1.25441E-06-2.72692E-06 1.01834E-05 1.74965E-06 4.78287E-06 1.46257E-06
 -1         5 1.98023E-06 1.98022E-06-1.45288E-05-1.70905E-06-1.26529E-05-1.26527E-05
 -1         6 1.98023E-06 1.98022E-06-1.45288E-05 1.70905E-06-1.26529E-05 1.26527E-05
 -1         7 1.98023E-06 1.98022E-06-1.45288E-05-1.70905E-06 1.26529E-05 1.26527E-05
 -1         8 1.98023E-06 1.98022E-06-1.45288E-05 1.70905E-06 1.26529E-05-1.26527E-05
 -1         9-1.85012E-07-4.02209E-06 1.04462E-05-1.43487E-06-4.34967E-06 5.59750E-07
 -1        10 8.84386E-07-5.31725E-06 1.07090E-05-2.29827E-16-3.91646E-06 3.09492E-16
 -1        11-1.85012E-07-4.02209E-06 1.04462E-05 1.43487E-06-4.34967E-06-5.59750E-07
 -1        12 1.17236E-06 1.66566E-06-7.11934E-06-1.64018E-07 5.92885E-06 7.80334E-07
 -1        13 3.59913E-06 6.05824E-06-2.44221E-05-4.52910E-16 1.08430E-15 3.02324E-06
 -1        14 1.17236E-06 1.66566E-06-7.11934E-06 1.64018E-07-5.92885E-06 7.80334E-07
 -1        15-1.85012E-07-4.02209E-06 1.04462E-05-1.43487E-06 4.34967E-06-5.59750E-07
 -1        16 8.84386E-07-5.31725E-06 1.07090E-05-2.33590E-16 3.91646E-06-3.48408E-16
 -1        17-1.85012E-07-4.02209E-06 1.04462E-05 1.43487E-06 4.34967E-06 5.59750E-07
 -1        18 1.17236E-06 1.66566E-06-7.11934E-06-1.64018E-07-5.92885E-06-7.80334E-07
 -1        19 3.59913E-06 6.05824E-06-2.44221E-05-4.78349E-16-1.22030E-15-3.02324E-06
 -1        20 1.17236E-06 1.66566E-06-7.11934E-06 1.64018E-07 5.92885E-06-7.80334E-07
 -1        21 6.29436E-07-4.26228E-06 1.01386E-05-1.96581E-06 4.25541E-06 6.23552E-06
 -1        22-7.21361E-07-1.05048E-05 3.48059E-05 1.16626E-16 2.11637E-05 3.22923E-17
 -1        23 6.29436E-07-4.26228E-06 1.01386E-05 1.96581E-06 4.25541E-06-6.23552E-06
 -1        24-4.26210E-06 6.29489E-07 1.01384E-05 1.96573E-06 6.23560E-06-4.25572E-06
 -1        25-1.05044E-05-7.21244E-07 3.48055E-05-1.42037E-16 1.09594E-16-2.11641E-05
 -1        26-4.26210E-06 6.29489E-07 1.01384E-05-1.96573E-06-6.23560E-06-4.25572E-06
 -1        27 6.29436E-07-4.26228E-06 1.01386E-05-1.96581E-06-4.25541E-06-6.23552E-06
 -1        28-7.21361E-07-1.05048E-05 3.48059E-05-9.57387E-17-2.11637E-05 2.04413E-16
 -1        29 6.29436E-07-4.26228E-06 1.01386E-05 1.96581E-06-4.25541E-06 6.23552E-06
 -1        30-4.26210E-06 6.29489E-07 1.01384E-05 1.96573E-06-6.23560E-06 4.25572E-06
 -1        31-1.05044E-05-7.21244E-07 3.48055E-05-8.17965E-17-6.62956E-17 2.11641E-05
 -1        32-4.26210E-06 6.29489E-07 1.01384E-05-1.96573E-06 6.23560E-06 4.25572E-06
 -1        33 6.74318E-07 9.15363E-07-1.63831E-06 8.47638E-07-6.90182E-08 2.16973E-07
 -1        34 2.94110E-06 2.58820E-06-1.05676E-05-5.16462E-07 2.37126E-06 3.84369E-07
 -1        35 2.66567E-06 1.99474E-06-7.97168E-06-2.39234E-07 2.17911E-07-2.76110E-07
 -1        36 2.23065E-06 2.93799E-06-8.27122E-06 2.29189E-07-2.46491E-08 2.44018E-07
 -1        37 2.44269E-06 2.47264E-06-8.22139E-06 1.14170E-08-1.60459E-07 3.43007E-09
 -1        38 2.47113E-06 2.42100E-06-8.20326E-06 3.55634E-08 1.61309E-07-5.41552E-08
 -1        39 2.48736E-06 2.47177E-06-8.20518E-06-5.25546E-08-2.15701E-08 4.53083E-08
 -1        40 2.42847E-06 2.45034E-06-8.26183E-06 6.35801E-08-3.98442E-08 2.58336E-08
 -1        41 2.46704E-06 2.46933E-06-8.19654E-06-8.75129E-09 6.22679E-08-7.07747E-08
 -1        42 2.34508E-06 2.34065E-06-8.12420E-06 2.88289E-07 6.00706E-07-5.95667E-07
 -1        43 2.65115E-06 2.65079E-06-8.33062E-06-3.17420E-07-6.68577E-07 6.70741E-07
 -1        44 2.69962E-06 2.70071E-06-7.84270E-06 4.87161E-07-1.14234E-06 1.14117E-06
 -1        45 1.94327E-06 1.94322E-06-8.88510E-06 2.86842E-08 2.06510E-06-2.06574E-06
 -1        46 2.52690E-06 2.52673E-06-5.10656E-06-8.02561E-07 2.81235E-06-2.81197E-06
 -1        47 2.67438E-06 2.67441E-06-7.10118E-06 1.24433E-06-5.40472E-06 5.40484E-06
 -1        48 2.67438E-06 2.67441E-06-7.10118E-06-1.24433E-06-5.40472E-06-5.40484E-06
 -1        49 2.52690E-06 2.52673E-06-5.10656E-06 8.02561E-07 2.81235E-06 2.81197E-06
 -1        50 1.94327E-06 1.94322E-06-8.88510E-06-2.86842E-08 2.06510E-06 2.06574E-06
 -1        51 2.69962E-06 2.70071E-06-7.84270E-06-4.87161E-07-1.14234E-06-1.14117E-06
 -1        52 2.65115E-06 2.65079E-06-8.33062E-06 3.17420E-07-6.68577E-07-6.70741E-07
 -1        53 2.34508E-06 2.34065E-06-8.12420E-06-2.88289E-07 6.00706E-07 5.95667E-07
 -1        54 2.46704E-06 2.46933E-06-8.19654E-06 8.75129E-09 6.22679E-08 7.07747E-08
 -1        55 2.42847E-06 2.45034E-06-8.26183E-06-6.35801E-08-3.98442E-08-2.58336E-08
 -1        56 2.48736E-06 2.47177E-06-8.20518E-06 5.25546E-08-2.15701E-08-4.53083E-08
 -1        57 2.47113E-06 2.42100E-06-8.20326E-06-3.55634E-08 1.61309E-07 5.41552E-08
 -1        58 2.44269E-06 2.47264E-06-8.22139E-06-1.14170E-08-1.60459E-07-3.43007E-09
 -1        59 2.23065E-06 2.93799E-06-8.27122E-06-2.29189E-07-2.46491E-08-2.44018E-07
 -1        60 2.66567E-06 1.99474E-06-7.97168E-06 2.39234E-07 2.17911E-07 2.76110E-07
 -1        61 2.94110E-06 2.58820E-06-1.05676E-05 5.16462E-07 2.37126E-06-3.84369E-07
 -1        62 6.74318E-07 9.15363E-07-1.63831E-06-8.47638E-07-6.90182E-08-2.16973E-07
 -1        63 6.74318E-07 9.15363E-07-1.63831E-06-8.47638E-07 6.90182E-08 2.16973E-07
 -1        64 2.94110E-06 2.58820E-06-1.05676E-05 5.16462E-07-2.37126E-06 3.84369E-07
 -1        65 2.66567E-06 1.99474E-06-7.97168E-06 2.39234E-07-2.17911E-07-2.76110E-07
 -1        66 2.23065E-06 2.93799E-06-8.27122E-06-2.29189E-07 2.46491E-08 2.44018E-07
 -1        67 2.44269E-06 2.47264E-06-8.22139E-06-1.14170E-08 1.60459E-07 3.43007E-09
 -1        68 2.47113E-06 2.42100E-06-8.20326E-06-3.55634E-08-1.61309E-07-5.41552E-08
 -1        69 2.48736E-06 2.47177E-06-8.20518E-06 5.25546E-08 2.15701E-08 4.53083E-08
 -1        70 2.42847E-06 2.45034E-06-8.26183E-06-6.35801E-08 3.98442E-08 2.58336E-08
 -1        71 2.46704E-06 2.46933E-06-8.19654E-06 8.75129E-09-6.22679E-08-7.07747E-08
 -1        72 2.34508E-06 2.34065E-06-8.12420E-06-2.88289E-07-6.00706E-07-5.95667E-07
 -1        73 2.65115E-06 2.65079E-06-8.33062E-06 3.17420E-07 6.68577E-07 6.70741E-07
 -1        74 2.69962E-06 2.70071E-06-7.84270E-06-4.87161E-07 1.14234E-06 1.14117E-06
 -1        75 1.94327E-06 1.94322E-06-8.88510E-06-2.86842E-08-2.06510E-06-2.06574E-06
 -1        76 2.52690E-06 2.52673E-06-5.10656E-06 8.02561E-07-2.81235E-06-2.81197E-06
 -1        77 2.67438E-06 2.67441E-06-7.10118E-06-1.24433E-06 5.40472E-06 5.40484E-06
 -1        78 6.74318E-07 9.15363E-07-1.63831E-06 8.47638E-07 6.90182E-08-2.16973E-07
 -1        79 2.94110E-06 2.58820E-06-1.05676E-05-5.16462E-07-2.37126E-06-3.84369E-07
 -1        80 2.66567E-06 1.99474E-06-7.97168E-06-2.39234E-07-2.17911E-07 2.76110E-07
 -1        81 2.23065E-06 2.93799E-06-8.27122E-06 2.29189E-07 2.46491E-08-2.44018E-07
 -1        82 2.44269E-06 2.47264E-06-8.22139E-06 1.14170E-08 1.60459E-07-3.43007E-09
 -1        83 2.47113E-06 2.42100E-06-8.20326E-06 3.55634E-08-1.61309E-07 5.41552E-08
 -1        84 2.48736E-06 2.47177E-06-8.20518E-06-5.25546E-08 2.15701E-08-4.53083E-08
 -1        85 2.42847E-06 2.45034E-06-8.26183E-06 6.35801E-08 3.98442E-08-2.58336E-08
 -1        86 2.46704E-06 2.46933E-06-8.19654E-06-8.75129E-09-6.22679E-08 7.07747E-08
 -1        87 2.34508E-06 2.34065E-06-8.12420E-06 2.88289E-07-6.00706E-07 5.95667E-07
 -1        88 2.65115E-06 2.65079E-06-8.33062E-06-3.17420E-07 6.68577E-07-6.70741E-07
 -1        89 2.69962E-06 2.70071E-06-7.84270E-06 4.87161E-07 1.14234E-06-1.14117E-06
 -1        90 1.94327E-06 1.94322E-06-8.88510E-06 2.86842E-08-2.06510E-06 2.06574E-06
 -1        91 2.52690E-06 2.52673E-06-5.10656E-06-8.02561E-07-2.81235E-06 2.81197E-06
 -1        92 2.67438E-06 2.67441E-06-7.10118E-06 1.24433E-06 5.40472E-06-5.40484E-06
 -1        93 2.24176E-06-1.03219E-06-6.82009E-06-3.08427E-16 5.86850E-06 1.95883E-16