    1C
    1UModel: beam     Date: 10-Mar-1998                                 
    1UUSER                                                              
    1UDATE              24.november.2019                                
    1UTIME              19:37:45                                        
    1UHOST                                                              
    1UPGM               CalculiX                                        
    1UVERSION           Version 2.16                             
    1UCOMPILETIME       So 24. Nov 18:30:58 CET 2019                    
    1UDIR                                                               
    1UDBN                                                               
    1UMAT    1UNDO_NLGEOM_LIN_EL_1                                      
    2C                           261                                     1
 -1         1 0.00000E+00 0.00000E+00 0.00000E+00
 -1         2 1.00000E+00 0.00000E+00 0.00000E+00
 -1         3 1.00000E+00 1.00000E+00 0.00000E+00
 -1         4 0.00000E+00 1.00000E+00 0.00000E+00
 -1         5 0.00000E+00 0.00000E+00 8.00000E+00
 -1         6 1.00000E+00 0.00000E+00 8.00000E+00
 -1         7 1.00000E+00 1.00000E+00 8.00000E+00
 -1         8 0.00000E+00 1.00000E+00 8.00000E+00
 -1         9 2.50000E-01 0.00000E+00 0.00000E+00
 -1        10 5.00000E-01 0.00000E+00 0.00000E+00
 -1        11 7.50000E-01 0.00000E+00 0.00000E+00
 -1        12 1.00000E+00 2.50000E-01 0.00000E+00
 -1        13 1.00000E+00 5.00000E-01 0.00000E+00
 -1        14 1.00000E+00 7.50000E-01 0.00000E+00
 -1        15 7.50000E-01 1.00000E+00 0.00000E+00
 -1        16 5.00000E-01 1.00000E+00 0.00000E+00
 -1        17 2.50000E-01 1.00000E+00 0.00000E+00
 -1        18 0.00000E+00 7.50000E-01 0.00000E+00
 -1        19 0.00000E+00 5.00000E-01 0.00000E+00
 -1        20 0.00000E+00 2.50000E-01 0.00000E+00
 -1        21 2.50000E-01 0.00000E+00 8.00000E+00
 -1        22 5.00000E-01 0.00000E+00 8.00000E+00
 -1        23 7.50000E-01 0.00000E+00 8.00000E+00
 -1        24 1.00000E+00 2.50000E-01 8.00000E+00
 -1        25 1.00000E+00 5.00000E-01 8.00000E+00
 -1        26 1.00000E+00 7.50000E-01 8.00000E+00
 -1        27 7.50000E-01 1.00000E+00 8.00000E+00
 -1        28 5.00000E-01 1.00000E+00 8.00000E+00
 -1        29 2.50000E-01 1.00000E+00 8.00000E+00
 -1        30 0.00000E+00 7.50000E-01 8.00000E+00
 -1        31 0.00000E+00 5.00000E-01 8.00000E+00
 -1        32 0.00000E+00 2.50000E-01 8.00000E+00
 -1        33 1.00000E+00 0.00000E+00 5.00000E-01
 -1        34 1.00000E+00 0.00000E+00 1.00000E+00
 -1        35 1.00000E+00 0.00000E+00 1.50000E+00
 -1        36 1.00000E+00 0.00000E+00 2.00000E+00
 -1        37 1.00000E+00 0.00000E+00 2.50000E+00
 -1        38 1.00000E+00 0.00000E+00 3.00000E+00
 -1        39 1.00000E+00 0.00000E+00 3.50000E+00
 -1        40 1.00000E+00 0.00000E+00 4.00000E+00
 -1        41 1.00000E+00 0.00000E+00 4.50000E+00
 -1        42 1.00000E+00 0.00000E+00 5.00000E+00
 -1        43 1.00000E+00 0.00000E+00 5.50000E+00
 -1        44 1.00000E+00 0.00000E+00 6.00000E+00
 -1        45 1.00000E+00 0.00000E+00 6.50000E+00
 -1        46 1.00000E+00 0.00000E+00 7.00000E+00
 -1        47 1.00000E+00 0.00000E+00 7.50000E+00
 -1        48 0.00000E+00 0.00000E+00 7.50000E+00
 -1        49 0.00000E+00 0.00000E+00 7.00000E+00
 -1        50 0.00000E+00 0.00000E+00 6.50000E+00
 -1        51 0.00000E+00 0.00000E+00 6.00000E+00
 -1        52 0.00000E+00 0.00000E+00 5.50000E+00
 -1        53 0.00000E+00 0.00000E+00 5.00000E+00
 -1        54 0.00000E+00 0.00000E+00 4.50000E+00
 -1        55 0.00000E+00 0.00000E+00 4.00000E+00
 -1        56 0.00000E+00 0.00000E+00 3.50000E+00
 -1        57 0.00000E+00 0.00000E+00 3.00000E+00
 -1        58 0.00000E+00 0.00000E+00 2.50000E+00
 -1        59 0.00000E+00 0.00000E+00 2.00000E+00
 -1        60 0.00000E+00 0.00000E+00 1.50000E+00
 -1        61 0.00000E+00 0.00000E+00 1.00000E+00
 -1        62 0.00000E+00 0.00000E+00 5.00000E-01
 -1        63 1.00000E+00 1.00000E+00 5.00000E-01
 -1        64 1.00000E+00 1.00000E+00 1.00000E+00
 -1        65 1.00000E+00 1.00000E+00 1.50000E+00
 -1        66 1.00000E+00 1.00000E+00 2.00000E+00
 -1        67 1.00000E+00 1.00000E+00 2.50000E+00
 -1        68 1.00000E+00 1.00000E+00 3.00000E+00
 -1        69 1.00000E+00 1.00000E+00 3.50000E+00
 -1        70 1.00000E+00 1.00000E+00 4.00000E+00
 -1        71 1.00000E+00 1.00000E+00 4.50000E+00
 -1        72 1.00000E+00 1.00000E+00 5.00000E+00
 -1        73 1.00000E+00 1.00000E+00 5.50000E+00
 -1        74 1.00000E+00 1.00000E+00 6.00000E+00
 -1        75 1.00000E+00 1.00000E+00 6.50000E+00
 -1        76 1.00000E+00 1.00000E+00 7.00000E+00
 -1        77 1.00000E+00 1.00000E+00 7.50000E+00
 -1        78 0.00000E+00 1.00000E+00 5.00000E-01
 -1        79 0.00000E+00 1.00000E+00 1.00000E+00
 -1        80 0.00000E+00 1.00000E+00 1.50000E+00
 -1        81 0.00000E+00 1.00000E+00 2.00000E+00
 -1        82 0.00000E+00 1.00000E+00 2.50000E+00
 -1        83 0.00000E+00 1.00000E+00 3.00000E+00
 -1        84 0.00000E+00 1.00000E+00 3.50000E+00
 -1        85 0.00000E+00 1.00000E+00 4.00000E+00
 -1        86 0.00000E+00 1.00000E+00 4.50000E+00
 -1        87 0.00000E+00 1.00000E+00 5.00000E+00
 -1        88 0.00000E+00 1.00000E+00 5.50000E+00
 -1        89 0.00000E+00 1.00000E+00 6.00000E+00
 -1        90 0.00000E+00 1.00000E+00 6.50000E+00
 -1        91 0.00000E+00 1.00000E+00 7.00000E+00
 -1        92 0.00000E+00 1.00000E+00 7.50000E+00
 -1        93 5.00000E-01 2.50000E-01 0.00000E+00
 -1        94 2.50000E-01 5.00000E-01 0.00000E+00
 -1        95 5.00000E-01 5.00000E-01 0.00000E+00
 -1        96 7.50000E-01 5.00000E-01 0.00000E+00
 -1        97 5.00000E-01 7.50000E-01 0.00000E+00
 -1        98 5.00000E-01 2.50000E-01 8.00000E+00
 -1        99 2.50000E-01 5.00000E-01 8.00000E+00
 -1       100 5.00000E-01 5.00000E-01 8.00000E+00
 -1       101 7.50000E-01 5.00000E-01 8.00000E+00
 -1       102 5.00000E-01 7.50000E-01 8.00000E+00
 -1       103 5.00000E-01 0.00000E+00 5.00000E-01
 -1       104 2.50000E-01 0.00000E+00 1.00000E+00
 -1       105 5.00000E-01 0.00000E+00 1.00000E+00
 -1       106 7.50000E-01 0.00000E+00 1.00000E+00
 -1       107 5.00000E-01 0.00000E+00 1.50000E+00
 -1       108 2.50000E-01 0.00000E+00 2.00000E+00
 -1       109 5.00000E-01 0.00000E+00 2.00000E+00
 -1       110 7.50000E-01 0.00000E+00 2.00000E+00
 -1       111 5.00000E-01 0.00000E+00 2.50000E+00
 -1       112 2.50000E-01 0.00000E+00 3.00000E+00
 -1       113 5.00000E-01 0.00000E+00 3.00000E+00
 -1       114 7.50000E-01 0.00000E+00 3.00000E+00
 -1       115 5.00000E-01 0.00000E+00 3.50000E+00
 -1       116 2.50000E-01 0.00000E+00 4.00000E+00
 -1       117 5.00000E-01 0.00000E+00 4.00000E+00
 -1       118 7.50000E-01 0.00000E+00 4.00000E+00
 -1       119 5.00000E-01 0.00000E+00 4.50000E+00
 -1       120 2.50000E-01 0.00000E+00 5.00000E+00
 -1       121 5.00000E-01 0.00000E+00 5.00000E+00
 -1       122 7.50000E-01 0.00000E+00 5.00000E+00
 -1       123 5.00000E-01 0.00000E+00 5.50000E+00
 -1       124 2.50000E-01 0.00000E+00 6.00000E+00
 -1       125 5.00000E-01 0.00000E+00 6.00000E+00
 -1       126 7.50000E-01 0.00000E+00 6.00000E+00
 -1       127 5.00000E-01 0.00000E+00 6.50000E+00
 -1       128 2.50000E-01 0.00000E+00 7.00000E+00
 -1       129 5.00000E-01 0.00000E+00 7.00000E+00
 -1       130 7.50000E-01 0.00000E+00 7.00000E+00
 -1       131 5.00000E-01 0.00000E+00 7.50000E+00
 -1       132 1.00000E+00 5.00000E-01 5.00000E-01
 -1       133 1.00000E+00 2.50000E-01 1.00000E+00
 -1       134 1.00000E+00 5.00000E-01 1.00000E+00
 -1       135 1.00000E+00 7.50000E-01 1.00000E+00
 -1       136 1.00000E+00 5.00000E-01 1.50000E+00
 -1       137 1.00000E+00 2.50000E-01 2.00000E+00
 -1       138 1.00000E+00 5.00000E-01 2.00000E+00
 -1       139 1.00000E+00 7.50000E-01 2.00000E+00
 -1       140 1.00000E+00 5.00000E-01 2.50000E+00
 -1       141 1.00000E+00 2.50000E-01 3.00000E+00
 -1       142 1.00000E+00 5.00000E-01 3.00000E+00
 -1       143 1.00000E+00 7.50000E-01 3.00000E+00
 -1       144 1.00000E+00 5.00000E-01 3.50000E+00
 -1       145 1.00000E+00 2.50000E-01 4.00000E+00
 -1       146 1.00000E+00 5.00000E-01 4.00000E+00
 -1       147 1.00000E+00 7.50000E-01 4.00000E+00
 -1       148 1.00000E+00 5.00000E-01 4.50000E+00
 -1       149 1.00000E+00 2.50000E-01 5.00000E+00
 -1       150 1.00000E+00 5.00000E-01 5.00000E+00
 -1       151 1.00000E+00 7.50000E-01 5.00000E+00
 -1       152 1.00000E+00 5.00000E-01 5.50000E+00
 -1       153 1.00000E+00 2.50000E-01 6.00000E+00
 -1       154 1.00000E+00 5.00000E-01 6.00000E+00
 -1       155 1.00000E+00 7.50000E-01 6.00000E+00
 -1       156 1.00000E+00 5.00000E-01 6.50000E+00
 -1       157 1.00000E+00 2.50000E-01 7.00000E+00
 -1       158 1.00000E+00 5.00000E-01 7.00000E+00
 -1       159 1.00000E+00 7.50000E-01 7.00000E+00
 -1       160 1.00000E+00 5.00000E-01 7.50000E+00
 -1       161 5.00000E-01 1.00000E+00 5.00000E-01
 -1       162 7.50000E-01 1.00000E+00 1.00000E+00
 -1       163 5.00000E-01 1.00000E+00 1.00000E+00
 -1       164 2.50000E-01 1.00000E+00 1.00000E+00
 -1       165 5.00000E-01 1.00000E+00 1.50000E+00
 -1       166 7.50000E-01 1.00000E+00 2.00000E+00
 -1       167 5.00000E-01 1.00000E+00 2.00000E+00
 -1       168 2.50000E-01 1.00000E+00 2.00000E+00
 -1       169 5.00000E-01 1.00000E+00 2.50000E+00
 -1       170 7.50000E-01 1.00000E+00 3.00000E+00
 -1       171 5.00000E-01 1.00000E+00 3.00000E+00
 -1       172 2.50000E-01 1.00000E+00 3.00000E+00
 -1       173 5.00000E-01 1.00000E+00 3.50000E+00
 -1       174 7.50000E-01 1.00000E+00 4.00000E+00
 -1       175 5.00000E-01 1.00000E+00 4.00000E+00
 -1       176 2.50000E-01 1.00000E+00 4.00000E+00
 -1       177 5.00000E-01 1.00000E+00 4.50000E+00
 -1       178 7.50000E-01 1.00000E+00 5.00000E+00
 -1       179 5.00000E-01 1.00000E+00 5.00000E+00
 -1       180 2.50000E-01 1.00000E+00 5.00000E+00
 -1       181 5.00000E-01 1.00000E+00 5.50000E+00
 -1       182 7.50000E-01 1.00000E+00 6.00000E+00
 -1       183 5.00000E-01 1.00000E+00 6.00000E+00
 -1       184 2.50000E-01 1.00000E+00 6.00000E+00
 -1       185 5.00000E-01 1.00000E+00 6.50000E+00
 -1       186 7.50000E-01 1.00000E+00 7.00000E+00
 -1       187 5.00000E-01 1.00000E+00 7.00000E+00
 -1       188 2.50000E-01 1.00000E+00 7.00000E+00
 -1       189 5.00000E-01 1.00000E+00 7.50000E+00
 -1       190 0.00000E+00 5.00000E-01 5.00000E-01
 -1       191 0.00000E+00 7.50000E-01 1.00000E+00
 -1       192 0.00000E+00 5.00000E-01 1.00000E+00
 -1       193 0.00000E+00 2.50000E-01 1.00000E+00
 -1       194 0.00000E+00 5.00000E-01 1.50000E+00
 -1       195 0.00000E+00 7.50000E-01 2.00000E+00
 -1       196 0.00000E+00 5.00000E-01 2.00000E+00
 -1       197 0.00000E+00 2.50000E-01 2.00000E+00
 -1       198 0.00000E+00 5.00000E-01 2.50000E+00
 -1       199 0.00000E+00 7.50000E-01 3.00000E+00
 -1       200 0.00000E+00 5.00000E-01 3.00000E+00
 -1       201 0.00000E+00 2.50000E-01 3.00000E+00
 -1       202 0.00000E+00 5.00000E-01 3.50000E+00
 -1       203 0.00000E+00 7.50000E-01 4.00000E+00
 -1       204 0.00000E+00 5.00000E-01 4.00000E+00
 -1       205 0.00000E+00 2.50000E-01 4.00000E+00
 -1       206 0.00000E+00 5.00000E-01 4.50000E+00
 -1       207 0.00000E+00 7.50000E-01 5.00000E+00
 -1       208 0.00000E+00 5.00000E-01 5.00000E+00
 -1       209 0.00000E+00 2.50000E-01 5.00000E+00
 -1       210 0.00000E+00 5.00000E-01 5.50000E+00
 -1       211 0.00000E+00 7.50000E-01 6.00000E+00
 -1       212 0.00000E+00 5.00000E-01 6.00000E+00
 -1       213 0.00000E+00 2.50000E-01 6.00000E+00
 -1       214 0.00000E+00 5.00000E-01 6.50000E+00
 -1       215 0.00000E+00 7.50000E-01 7.00000E+00
 -1       216 0.00000E+00 5.00000E-01 7.00000E+00
 -1       217 0.00000E+00 2.50000E-01 7.00000E+00
 -1       218 0.00000E+00 5.00000E-01 7.50000E+00
 -1       219 5.00000E-01 5.00000E-01 5.00000E-01
 -1       220 5.00000E-01 2.50000E-01 1.00000E+00
 -1       221 2.50000E-01 5.00000E-01 1.00000E+00
 -1       222 5.00000E-01 5.00000E-01 1.00000E+00
 -1       223 7.50000E-01 5.00000E-01 1.00000E+00
 -1       224 5.00000E-01 7.50000E-01 1.00000E+00
 -1       225 5.00000E-01 5.00000E-01 1.50000E+00
 -1       226 5.00000E-01 2.50000E-01 2.00000E+00
 -1       227 2.50000E-01 5.00000E-01 2.00000E+00
 -1       228 5.00000E-01 5.00000E-01 2.00000E+00
 -1       229 7.50000E-01 5.00000E-01 2.00000E+00
 -1       230 5.00000E-01 7.50000E-01 2.00000E+00
 -1       231 5.00000E-01 5.00000E-01 2.50000E+00
 -1       232 5.00000E-01 2.50000E-01 3.00000E+00
 -1       233 2.50000E-01 5.00000E-01 3.00000E+00
 -1       234 5.00000E-01 5.00000E-01 3.00000E+00
 -1       235 7.50000E-01 5.00000E-01 3.00000E+00
 -1       236 5.00000E-01 7.50000E-01 3.00000E+00
 -1       237 5.00000E-01 5.00000E-01 3.50000E+00
 -1       238 5.00000E-01 2.50000E-01 4.00000E+00
 -1       239 2.50000E-01 5.00000E-01 4.00000E+00
 -1       240 5.00000E-01 5.00000E-01 4.00000E+00
 -1       241 7.50000E-01 5.00000E-01 4.00000E+00
 -1       242 5.00000E-01 7.50000E-01 4.00000E+00
 -1       243 5.00000E-01 5.00000E-01 4.50000E+00
 -1       244 5.00000E-01 2.50000E-01 5.00000E+00
 -1       245 2.50000E-01 5.00000E-01 5.00000E+00
 -1       246 5.00000E-01 5.00000E-01 5.00000E+00
 -1       247 7.50000E-01 5.00000E-01 5.00000E+00
 -1       248 5.00000E-01 7.50000E-01 5.00000E+00
 -1       249 5.00000E-01 5.00000E-01 5.50000E+00
 -1       250 5.00000E-01 2.50000E-01 6.00000E+00
 -1       251 2.50000E-01 5.00000E-01 6.00000E+00
 -1       252 5.00000E-01 5.00000E-01 6.00000E+00
 -1       253 7.50000E-01 5.00000E-01 6.00000E+00
 -1       254 5.00000E-01 7.50000E-01 6.00000E+00
 -1       255 5.00000E-01 5.00000E-01 6.50000E+00
 -1       256 5.00000E-01 2.50000E-01 7.00000E+00
 -1       257 2.50000E-01 5.00000E-01 7.00000E+00
 -1       258 5.00000E-01 5.00000E-01 7.00000E+00
 -1       259 7.50000E-01 5.00000E-01 7.00000E+00
 -1       260 5.00000E-01 7.50000E-01 7.00000E+00
 -1       261 5.00000E-01 5.00000E-01 7.50000E+00
 -3
    3C                            32                                     1
 -1         1    4    0    1
 -2         1        10        95        19        61       105       222       192         9        93
 -2        94        20        62       103       219       190       104       220       221       193
 -1         2    4    0    1
 -2        10         2        13        95       105        34       134       222        11        12
 -2        96        93       103        33       132       219       106       133       223       220
 -1         3    4    0    1
 -2        19        95        16         4       192       222       163        79        94        97
 -2        17        18       190       219       161        78       221       224       164       191
 -1         4    4    0    1
 -2        95        13         3        16       222       134        64       163        96        14
 -2        15        97       219       132        63       161       223       135       162       224
 -1         5    4    0    1
 -2        61       105       222       192        59       109       228       196       104       220
 -2       221       193        60       107       225       194       108       226       227       197
 -1         6    4    0    1
 -2       105        34       134       222       109        36       138       228       106       133
 -2       223       220       107        35       136       225       110       137       229       226
 -1         7    4    0    1
 -2       192       222       163        79       196       228       167        81       221       224
 -2       164       191       194       225       165        80       227       230       168       195
 -1         8    4    0    1
 -2       222       134        64       163       228       138        66       167       223       135
 -2       162       224       225       136        65       165       229       139       166       230
 -1         9    4    0    1
 -2        59       109       228       196        57       113       234       200       108       226
 -2       227       197        58       111       231       198       112       232       233       201
 -1        10    4    0    1
 -2       109        36       138       228       113        38       142       234       110       137
 -2       229       226       111        37       140       231       114       141       235       232
 -1        11    4    0    1
 -2       196       228       167        81       200       234       171        83       227       230
 -2       168       195       198       231       169        82       233       236       172       199
 -1        12    4    0    1
 -2       228       138        66       167       234       142        68       171       229       139
 -2       166       230       231       140        67       169       235       143       170       236
 -1        13    4    0    1
 -2        57       113       234       200        55       117       240       204       112       232
 -2       233       201        56       115       237       202       116       238       239       205
 -1        14    4    0    1
 -2       113        38       142       234       117        40       146       240       114       141
 -2       235       232       115        39       144       237       118       145       241       238
 -1        15    4    0    1
 -2       200       234       171        83       204       240       175        85       233       236
 -2       172       199       202       237       173        84       239       242       176       203
 -1        16    4    0    1
 -2       234       142        68       171       240       146        70       175       235       143
 -2       170       236       237       144        69       173       241       147       174       242
 -1        17    4    0    1
 -2        55       117       240       204        53       121       246       208       116       238
 -2       239       205        54       119       243       206       120       244       245       209
 -1        18    4    0    1
 -2       117        40       146       240       121        42       150       246       118       145
 -2       241       238       119        41       148       243       122       149       247       244
 -1        19    4    0    1
 -2       204       240       175        85       208       246       179        87       239       242
 -2       176       203       206       243       177        86       245       248       180       207
 -1        20    4    0    1
 -2       240       146        70       175       246       150        72       179       241       147
 -2       174       242       243       148        71       177       247       151       178       248
 -1        21    4    0    1
 -2        53       121       246       208        51       125       252       212       120       244
 -2       245       209        52       123       249       210       124       250       251       213
 -1        22    4    0    1
 -2       121        42       150       246       125        44       154       252       122       149
 -2       247       244       123        43       152       249       126       153       253       250
 -1        23    4    0    1
 -2       208       246       179        87       212       252       183        89       245       248
 -2       180       207       210       249       181        88       251       254       184       211
 -1        24    4    0    1
 -2       246       150        72       179       252       154        74       183       247       151
 -2       178       248       249       152        73       181       253       155       182       254
 -1        25    4    0    1
 -2        51       125       252       212        49       129       258       216       124       250
 -2       251       213        50       127       255       214       128       256       257       217
 -1        26    4    0    1
 -2       125        44       154       252       129        46       158       258       126       153
 -2       253       250       127        45       156       255       130       157       259       256
 -1        27    4    0    1
 -2       212       252       183        89       216       258       187        91       251       254
 -2       184       211       214       255       185        90       257       260       188       215
 -1        28    4    0    1
 -2       252       154        74       183       258       158        76       187       253       155
 -2       182       254       255       156        75       185       259       159       186       260
 -1        29    4    0    1
 -2        49       129       258       216         5        22       100        31       128       256
 -2       257       217        48       131       261       218        21        98        99        32
 -1        30    4    0    1
 -2       129        46       158       258        22         6        25       100       130       157
 -2       259       256       131        47       160       261        23        24       101        98
 -1        31    4    0    1
 -2       216       258       187        91        31       100        28         8       257       260
 -2       188       215       218       261       189        92        99       102        29        30
 -1        32    4    0    1
 -2       258       158        76       187       100        25         7        28       259       159
 -2       186       260       261       160        77       189       101        26        27       102
 -3
    1PSTEP                         1           1           1          
  100CL  101 1.000000000         261                     0    1           1
 -4  TOSTRAIN    6    1
 -5  EXX         1    4    1    1
 -5  EYY         1    4    2    2
 -5  EZZ         1    4    3    3
 -5  EXY         1    4    1    2
 -5  EYZ         1    4    2    3
 -5  EZX         1    4    3    1
 -1         1 1.68519E-13 6.65639E-13-1.92843E-12 2.84163E-13 6.45875E-13-2.09043E-13
 -1         2 1.67424E-13 6.64725E-13-1.92913E-12-2.84042E-13 6.45824E-13 2.09151E-13
 -1         3 1.65686E-13 6.67418E-13-1.91382E-12 2.88623E-13-6.63284E-13 2.09751E-13
 -1         4 1.65985E-13 6.68082E-13-1.91366E-12-2.88793E-13-6.63516E-13-2.09576E-13
 -1         5-1.71738E-13 3.86070E-13 2.98686E-12 2.22148E-13 1.82239E-12 1.86638E-12
 -1         6-1.71720E-13 3.85674E-13 2.98677E-12-2.22038E-13 1.82235E-12-1.86623E-12
 -1         7-2.63558E-13-1.13762E-14 3.13060E-12 2.61343E-13-1.72527E-12-1.71037E-12
 -1         8-2.62997E-13-1.11809E-14 3.13105E-12-2.61010E-13-1.72532E-12 1.70994E-12
 -1         9 4.27344E-14 8.65495E-13-1.98389E-12 2.26872E-13 5.83507E-13-7.18773E-14
 -1        10-8.31667E-14 1.06528E-12-2.03938E-12-9.54249E-17 5.21093E-13-2.47083E-17
 -1        11 4.20705E-14 8.64963E-13-1.98427E-12-2.26907E-13 5.83435E-13 7.19068E-14
 -1        12-1.98602E-13-2.48050E-13 1.63064E-12 2.18364E-14-9.08748E-13-1.24129E-13
 -1        13-5.65289E-13-1.13563E-12 5.19166E-12-1.89467E-15 6.85117E-14-4.56938E-13
 -1        14-2.00133E-13-2.21505E-13 1.63955E-12-2.14410E-14 9.68530E-13-1.23358E-13
 -1        15 3.67932E-14 8.70275E-13-1.96911E-12 2.30236E-13-6.01425E-13 7.00058E-14
 -1        16-9.20699E-14 1.07314E-12-2.02438E-12 3.30945E-17-5.39588E-13-1.20138E-16
 -1        17 3.69725E-14 8.70619E-13-1.96901E-12-2.30288E-13-6.01562E-13-7.00388E-14
 -1        18-2.00157E-13-2.21575E-13 1.63935E-12 2.13377E-14 9.68418E-13 1.23549E-13
 -1        19-5.65722E-13-1.13658E-12 5.19109E-12 1.86211E-15 6.86332E-14 4.57130E-13
 -1        20-1.98313E-13-2.48148E-13 1.63070E-12-2.17905E-14-9.08606E-13 1.24271E-13
 -1        21-6.84462E-15 1.98525E-12-1.93776E-12 2.68464E-13-5.16401E-13-9.16993E-13
 -1        22 1.58297E-13 3.58451E-12-6.86235E-12-1.20371E-16-2.85523E-12-1.05817E-16
 -1        23-6.58752E-15 1.98513E-12-1.93778E-12-2.68530E-13-5.16457E-13 9.16961E-13
 -1        24 6.00248E-13 4.73655E-13-1.47645E-12-2.46268E-13-1.09523E-12 4.75109E-13
 -1        25 1.40427E-12 5.38009E-13-5.99014E-12 8.74161E-14-3.75137E-13 2.85691E-12
 -1        26 5.86386E-13 2.51503E-13-1.45500E-12 3.53336E-13 7.68632E-13 5.93505E-13
 -1        27-1.02674E-13 1.13851E-12-1.66521E-12 3.48756E-13 5.87348E-13 9.84724E-13
 -1        28 5.86109E-14 2.28851E-12-6.46099E-12-2.05176E-16 2.90003E-12 2.47968E-16
 -1        29-1.01993E-13 1.13872E-12-1.66495E-12-3.48795E-13 5.87383E-13-9.84687E-13
 -1        30 5.86402E-13 2.51464E-13-1.45473E-12-3.53274E-13 7.68493E-13-5.93669E-13
 -1        31 1.40370E-12 5.37925E-13-5.99007E-12-8.77837E-14-3.75290E-13-2.85677E-12
 -1        32 5.99926E-13 4.73906E-13-1.47639E-12 2.46059E-13-1.09525E-12-4.74934E-13
 -1        33-1.15107E-13-9.28317E-14 5.35471E-13-1.29367E-13-2.33942E-14-3.67201E-14
 -1        34-4.28303E-13-4.64004E-13 2.26725E-12 8.80268E-14-2.81664E-13-4.21875E-14
 -1        35-3.34839E-13-2.72851E-13 1.44988E-12 3.36994E-14 1.93805E-14 4.54153E-14
 -1        36-2.46470E-13-3.84481E-13 1.37989E-12-3.49441E-14-1.89938E-14-3.71170E-14
 -1        37-2.64504E-13-3.08122E-13 1.28371E-12 1.00611E-15 3.48831E-14 6.26043E-15
 -1        38-2.46026E-13-3.12155E-13 1.18690E-12-8.48586E-15-3.34606E-15 1.10171E-14
 -1        39-2.37682E-13-3.12588E-13 1.10311E-12 9.06776E-15 2.35016E-14-5.37246E-15
 -1        40-2.11640E-13-2.97989E-13 1.03731E-12-1.54537E-14 1.46975E-14 7.18912E-15
 -1        41-2.10226E-13-2.88165E-13 9.62307E-13 6.64742E-15-2.52919E-15 6.52948E-15
 -1        42-1.73607E-13-2.46081E-13 8.75544E-13-5.92073E-14-1.09905E-13 9.67637E-14
 -1        43-2.03539E-13-2.74554E-13 9.00012E-13 5.67792E-14 1.09719E-13-1.00263E-13
 -1        44-1.93643E-13-2.49205E-13 6.69375E-13-1.00486E-13 1.71341E-13-1.66431E-13
 -1        45-9.83544E-14 3.89278E-14 1.07211E-12 1.15069E-14-4.04108E-13 2.90139E-13
 -1        46-1.74025E-13-9.34488E-14 4.73132E-13 1.41414E-13-4.04990E-13 3.76719E-13
 -1        47-2.11610E-13-1.19805E-14 1.11161E-12-2.31517E-13 8.43776E-13-7.88577E-13
 -1        48-2.11428E-13-1.18167E-14 1.11179E-12 2.31638E-13 8.43738E-13 7.88511E-13
 -1        49-1.73997E-13-9.37743E-14 4.72978E-13-1.41403E-13-4.05081E-13-3.76881E-13
 -1        50-9.88908E-14 3.84831E-14 1.07199E-12-1.17139E-14-4.04062E-13-2.90081E-13
 -1        51-1.94273E-13-2.49505E-13 6.69373E-13 1.00311E-13 1.71488E-13 1.66514E-13
 -1        52-2.03532E-13-2.74574E-13 9.00025E-13-5.68064E-14 1.09736E-13 1.00193E-13
 -1        53-1.73021E-13-2.45825E-13 8.75945E-13 5.91993E-14-1.09854E-13-9.67409E-14
 -1        54-2.10030E-13-2.87996E-13 9.62494E-13-6.56911E-15-2.55853E-15-6.48239E-15
 -1        55-2.11952E-13-2.98124E-13 1.03717E-12 1.55408E-14 1.44586E-14-7.20011E-15
 -1        56-2.37700E-13-3.12682E-13 1.10324E-12-9.05392E-15 2.35362E-14 5.39442E-15
 -1        57-2.45728E-13-3.11889E-13 1.18721E-12 8.53073E-15-3.20735E-15-1.10425E-14
 -1        58-2.64498E-13-3.08245E-13 1.28390E-12-1.02509E-15 3.48457E-14-6.25648E-15
 -1        59-2.46824E-13-3.85104E-13 1.37975E-12 3.47852E-14-1.90095E-14 3.70829E-14
 -1        60-3.34835E-13-2.73151E-13 1.44971E-12-3.36996E-14 1.93906E-14-4.53588E-14
 -1        61-4.27920E-13-4.63839E-13 2.26717E-12-8.77567E-14-2.81732E-13 4.22095E-14
 -1        62-1.14411E-13-9.22255E-14 5.35661E-13 1.29592E-13-2.34310E-14 3.66901E-14
 -1        63-1.68097E-13-1.73907E-13 7.86343E-13 1.31392E-13 2.64955E-14-4.10878E-14
 -1        64-5.35505E-13-6.16382E-13 2.75882E-12-8.84472E-14 2.89584E-13-4.91322E-14
 -1        65-4.90457E-13-4.87818E-13 2.15973E-12-3.39276E-14-1.62372E-14 4.07864E-14
 -1        66-4.47585E-13-6.72380E-13 2.30102E-12 3.46750E-14 2.86561E-14-4.18513E-14
 -1        67-5.01059E-13-6.42946E-13 2.36724E-12-8.38500E-16-2.60144E-14 2.57294E-15
 -1        68-5.17513E-13-6.94829E-13 2.43218E-12 8.36123E-15 1.35496E-14 8.28668E-15
 -1        69-5.37339E-13-7.34413E-13 2.47316E-12-9.15042E-15-1.20705E-14-8.71795E-15
 -1        70-5.38986E-13-7.59420E-13 2.53288E-12 1.41179E-14-1.40875E-15 4.30026E-15
 -1        71-5.62902E-13-7.88785E-13 2.58028E-12-5.00304E-15 1.10038E-14 4.20582E-15
 -1        72-5.53810E-13-7.81150E-13 2.61874E-12 5.87564E-14 1.17225E-13 9.48428E-14
 -1        73-6.13057E-13-8.49635E-13 2.77131E-12-5.87103E-14-9.09109E-14-1.05445E-13
 -1        74-6.37052E-13-8.59504E-13 2.66127E-12 8.62425E-14-1.36029E-13-1.76612E-13
 -1        75-5.27848E-13-5.95115E-13 3.09080E-12 8.44144E-15 3.97101E-13 3.01084E-13
 -1        76-6.46649E-13-6.85191E-13 2.64090E-12-1.55982E-13 4.32307E-13 3.57991E-13
 -1        77-5.25277E-13-4.68217E-13 2.32532E-12 2.00503E-13-7.39761E-13-7.45881E-13
 -1        78-1.68085E-13-1.73859E-13 7.86142E-13-1.31269E-13 2.65294E-14 4.10665E-14
 -1        79-5.35560E-13-6.16656E-13 2.75893E-12 8.87330E-14 2.89794E-13 4.90696E-14
 -1        80-4.90651E-13-4.87797E-13 2.15972E-12 3.40277E-14-1.63367E-14-4.08174E-14
 -1        81-4.48029E-13-6.72287E-13 2.30059E-12-3.46828E-14 2.86791E-14 4.16893E-14
 -1        82-5.01312E-13-6.43108E-13 2.36754E-12 8.65544E-16-2.59262E-14-2.53520E-15
 -1        83-5.17764E-13-6.95373E-13 2.43244E-12-8.19563E-15 1.34890E-14-8.09947E-15
 -1        84-5.37409E-13-7.34294E-13 2.47324E-12 9.27136E-15-1.21368E-14 8.80493E-15
 -1        85-5.38506E-13-7.58745E-13 2.53280E-12-1.41431E-14-1.57268E-15-4.46208E-15
 -1        86-5.62847E-13-7.88728E-13 2.58063E-12 4.88493E-15 1.10519E-14-4.20625E-15
 -1        87-5.54494E-13-7.81671E-13 2.61900E-12-5.89070E-14 1.17344E-13-9.49715E-14
 -1        88-6.13335E-13-8.49938E-13 2.77112E-12 5.86316E-14-9.08744E-14 1.05405E-13
 -1        89-6.37188E-13-8.59377E-13 2.66141E-12-8.61749E-14-1.36071E-13 1.76925E-13
 -1        90-5.28028E-13-5.94979E-13 3.09084E-12-8.53469E-15 3.97061E-13-3.01200E-13
 -1        91-6.47128E-13-6.85424E-13 2.64073E-12 1.55834E-13 4.32350E-13-3.57867E-13
 -1        92-5.25507E-13-4.68379E-13 2.32536E-12-2.00314E-13-7.39775E-13 7.45950E-13
 -1        93-3.24027E-13 1.89558E-13 1.56414E-12-3.97291E-17-8.88646E-13-6.34300E-17