    1C
    1UModel: beam     Date: 10-Mar-1998                                 
    1UUSER                                                              
    1UDATE              24.november.2019                                
    1UTIME              19:37:45                                        
    1UHOST                                                              
    1UPGM               CalculiX                                        
    1UVERSION           Version 2.16                             
    1UCOMPILETIME       So 24. Nov 18:30:58 CET 2019                    
    1UDIR                                                               
    1UDBN                                                               
    1UMAT    1EL                                                        
    2C                           261                                     1
 -1         1 0.00000E+00 0.00000E+00 0.00000E+00
 -1         2 1.00000E+00 0.00000E+00 0.00000E+00
 -1         3 1.00000E+00 1.00000E+00 0.00000E+00
 -1         4 0.00000E+00 1.00000E+00 0.00000E+00
 -1         5 0.00000E+00 0.00000E+00 8.00000E+00
 -1         6 1.00000E+00 0.00000E+00 8.00000E+00
 -1         7 1.00000E+00 1.00000E+00 8.00000E+00
 -1         8 0.00000E+00 1.00000E+00 8.00000E+00
 -1         9 2.50000E-01 0.00000E+00 0.00000E+00
 -1        10 5.00000E-01 0.00000E+00 0.00000E+00
 -1        11 7.50000E-01 0.00000E+00 0.00000E+00
 -1        12 1.00000E+00 2.50000E-01 0.00000E+00
 -1        13 1.00000E+00 5.00000E-01 0.00000E+00
 -1        14 1.00000E+00 7.50000E-01 0.00000E+00
 -1        15 7.50000E-01 1.00000E+00 0.00000E+00
 -1        16 5.00000E-01 1.00000E+00 0.00000E+00
 -1        17 2.50000E-01 1.00000E+00 0.00000E+00
 -1        18 0.00000E+00 7.50000E-01 0.00000E+00
 -1        19 0.00000E+00 5.00000E-01 0.00000E+00
 -1        20 0.00000E+00 2.50000E-01 0.00000E+00
 -1        21 2.50000E-01 0.00000E+00 8.00000E+00
 -1        22 5.00000E-01 0.00000E+00 8.00000E+00
 -1        23 7.50000E-01 0.00000E+00 8.00000E+00
 -1        24 1.00000E+00 2.50000E-01 8.00000E+00
 -1        25 1.00000E+00 5.00000E-01 8.00000E+00
 -1        26 1.00000E+00 7.50000E-01 8.00000E+00
 -1        27 7.50000E-01 1.00000E+00 8.00000E+00
 -1        28 5.00000E-01 1.00000E+00 8.00000E+00
 -1        29 2.50000E-01 1.00000E+00 8.00000E+00
 -1        30 0.00000E+00 7.50000E-01 8.00000E+00
 -1        31 0.00000E+00 5.00000E-01 8.00000E+00
 -1        32 0.00000E+00 2.50000E-01 8.00000E+00
 -1        33 1.00000E+00 0.00000E+00 5.00000E-01
 -1        34 1.00000E+00 0.00000E+00 1.00000E+00
 -1        35 1.00000E+00 0.00000E+00 1.50000E+00
 -1        36 1.00000E+00 0.00000E+00 2.00000E+00
 -1        37 1.00000E+00 0.00000E+00 2.50000E+00
 -1        38 1.00000E+00 0.00000E+00 3.00000E+00
 -1        39 1.00000E+00 0.00000E+00 3.50000E+00
 -1        40 1.00000E+00 0.00000E+00 4.00000E+00
 -1        41 1.00000E+00 0.00000E+00 4.50000E+00
 -1        42 1.00000E+00 0.00000E+00 5.00000E+00
 -1        43 1.00000E+00 0.00000E+00 5.50000E+00
 -1        44 1.00000E+00 0.00000E+00 6.00000E+00
 -1        45 1.00000E+00 0.00000E+00 6.50000E+00
 -1        46 1.00000E+00 0.00000E+00 7.00000E+00
 -1        47 1.00000E+00 0.00000E+00 7.50000E+00
 -1        48 0.00000E+00 0.00000E+00 7.50000E+00
 -1        49 0.00000E+00 0.00000E+00 7.00000E+00
 -1        50 0.00000E+00 0.00000E+00 6.50000E+00
 -1        51 0.00000E+00 0.00000E+00 6.00000E+00
 -1        52 0.00000E+00 0.00000E+00 5.50000E+00
 -1        53 0.00000E+00 0.00000E+00 5.00000E+00
 -1        54 0.00000E+00 0.00000E+00 4.50000E+00
 -1        55 0.00000E+00 0.00000E+00 4.00000E+00
 -1        56 0.00000E+00 0.00000E+00 3.50000E+00
 -1        57 0.00000E+00 0.00000E+00 3.00000E+00
 -1        58 0.00000E+00 0.00000E+00 2.50000E+00
 -1        59 0.00000E+00 0.00000E+00 2.00000E+00
 -1        60 0.00000E+00 0.00000E+00 1.50000E+00
 -1        61 0.00000E+00 0.00000E+00 1.00000E+00
 -1        62 0.00000E+00 0.00000E+00 5.00000E-01
 -1        63 1.00000E+00 1.00000E+00 5.00000E-01
 -1        64 1.00000E+00 1.00000E+00 1.00000E+00
 -1        65 1.00000E+00 1.00000E+00 1.50000E+00
 -1        66 1.00000E+00 1.00000E+00 2.00000E+00
 -1        67 1.00000E+00 1.00000E+00 2.50000E+00
 -1        68 1.00000E+00 1.00000E+00 3.00000E+00
 -1        69 1.00000E+00 1.00000E+00 3.50000E+00
 -1        70 1.00000E+00 1.00000E+00 4.00000E+00
 -1        71 1.00000E+00 1.00000E+00 4.50000E+00
 -1        72 1.00000E+00 1.00000E+00 5.00000E+00
 -1        73 1.00000E+00 1.00000E+00 5.50000E+00
 -1        74 1.00000E+00 1.00000E+00 6.00000E+00
 -1        75 1.00000E+00 1.00000E+00 6.50000E+00
 -1        76 1.00000E+00 1.00000E+00 7.00000E+00
 -1        77 1.00000E+00 1.00000E+00 7.50000E+00
 -1        78 0.00000E+00 1.00000E+00 5.00000E-01
 -1        79 0.00000E+00 1.00000E+00 1.00000E+00
 -1        80 0.00000E+00 1.00000E+00 1.50000E+00
 -1        81 0.00000E+00 1.00000E+00 2.00000E+00
 -1        82 0.00000E+00 1.00000E+00 2.50000E+00
 -1        83 0.00000E+00 1.00000E+00 3.00000E+00
 -1        84 0.00000E+00 1.00000E+00 3.50000E+00
 -1        85 0.00000E+00 1.00000E+00 4.00000E+00
 -1        86 0.00000E+00 1.00000E+00 4.50000E+00
 -1        87 0.00000E+00 1.00000E+00 5.00000E+00
 -1        88 0.00000E+00 1.00000E+00 5.50000E+00
 -1        89 0.00000E+00 1.00000E+00 6.00000E+00
 -1        90 0.00000E+00 1.00000E+00 6.50000E+00
 -1        91 0.00000E+00 1.00000E+00 7.00000E+00
 -1        92 0.00000E+00 1.00000E+00 7.50000E+00
 -1        93 5.00000E-01 2.50000E-01 0.00000E+00
 -1        94 2.50000E-01 5.00000E-01 0.00000E+00
 -1        95 5.00000E-01 5.00000E-01 0.00000E+00
 -1        96 7.50000E-01 5.00000E-01 0.00000E+00
 -1        97 5.00000E-01 7.50000E-01 0.00000E+00
 -1        98 5.00000E-01 2.50000E-01 8.00000E+00
 -1        99 2.50000E-01 5.00000E-01 8.00000E+00
 -1       100 5.00000E-01 5.00000E-01 8.00000E+00
 -1       101 7.50000E-01 5.00000E-01 8.00000E+00
 -1       102 5.00000E-01 7.50000E-01 8.00000E+00
 -1       103 5.00000E-01 0.00000E+00 5.00000E-01
 -1       104 2.50000E-01 0.00000E+00 1.00000E+00
 -1       105 5.00000E-01 0.00000E+00 1.00000E+00
 -1       106 7.50000E-01 0.00000E+00 1.00000E+00
 -1       107 5.00000E-01 0.00000E+00 1.50000E+00
 -1       108 2.50000E-01 0.00000E+00 2.00000E+00
 -1       109 5.00000E-01 0.00000E+00 2.00000E+00
 -1       110 7.50000E-01 0.00000E+00 2.00000E+00
 -1       111 5.00000E-01 0.00000E+00 2.50000E+00
 -1       112 2.50000E-01 0.00000E+00 3.00000E+00
 -1       113 5.00000E-01 0.00000E+00 3.00000E+00
 -1       114 7.50000E-01 0.00000E+00 3.00000E+00
 -1       115 5.00000E-01 0.00000E+00 3.50000E+00
 -1       116 2.50000E-01 0.00000E+00 4.00000E+00
 -1       117 5.00000E-01 0.00000E+00 4.00000E+00
 -1       118 7.50000E-01 0.00000E+00 4.00000E+00
 -1       119 5.00000E-01 0.00000E+00 4.50000E+00
 -1       120 2.50000E-01 0.00000E+00 5.00000E+00
 -1       121 5.00000E-01 0.00000E+00 5.00000E+00
 -1       122 7.50000E-01 0.00000E+00 5.00000E+00
 -1       123 5.00000E-01 0.00000E+00 5.50000E+00
 -1       124 2.50000E-01 0.00000E+00 6.00000E+00
 -1       125 5.00000E-01 0.00000E+00 6.00000E+00
 -1       126 7.50000E-01 0.00000E+00 6.00000E+00
 -1       127 5.00000E-01 0.00000E+00 6.50000E+00
 -1       128 2.50000E-01 0.00000E+00 7.00000E+00
 -1       129 5.00000E-01 0.00000E+00 7.00000E+00
 -1       130 7.50000E-01 0.00000E+00 7.00000E+00
 -1       131 5.00000E-01 0.00000E+00 7.50000E+00
 -1       132 1.00000E+00 5.00000E-01 5.00000E-01
 -1       133 1.00000E+00 2.50000E-01 1.00000E+00
 -1       134 1.00000E+00 5.00000E-01 1.00000E+00
 -1       135 1.00000E+00 7.50000E-01 1.00000E+00
 -1       136 1.00000E+00 5.00000E-01 1.50000E+00
 -1       137 1.00000E+00 2.50000E-01 2.00000E+00
 -1       138 1.00000E+00 5.00000E-01 2.00000E+00
 -1       139 1.00000E+00 7.50000E-01 2.00000E+00
 -1       140 1.00000E+00 5.00000E-01 2.50000E+00
 -1       141 1.00000E+00 2.50000E-01 3.00000E+00
 -1       142 1.00000E+00 5.00000E-01 3.00000E+00
 -1       143 1.00000E+00 7.50000E-01 3.00000E+00
 -1       144 1.00000E+00 5.00000E-01 3.50000E+00
 -1       145 1.00000E+00 2.50000E-01 4.00000E+00
 -1       146 1.00000E+00 5.00000E-01 4.00000E+00
 -1       147 1.00000E+00 7.50000E-01 4.00000E+00
 -1       148 1.00000E+00 5.00000E-01 4.50000E+00
 -1       149 1.00000E+00 2.50000E-01 5.00000E+00
 -1       150 1.00000E+00 5.00000E-01 5.00000E+00
 -1       151 1.00000E+00 7.50000E-01 5.00000E+00
 -1       152 1.00000E+00 5.00000E-01 5.50000E+00
 -1       153 1.00000E+00 2.50000E-01 6.00000E+00
 -1       154 1.00000E+00 5.00000E-01 6.00000E+00
 -1       155 1.00000E+00 7.50000E-01 6.00000E+00
 -1       156 1.00000E+00 5.00000E-01 6.50000E+00
 -1       157 1.00000E+00 2.50000E-01 7.00000E+00
 -1       158 1.00000E+00 5.00000E-01 7.00000E+00
 -1       159 1.00000E+00 7.50000E-01 7.00000E+00
 -1       160 1.00000E+00 5.00000E-01 7.50000E+00
 -1       161 5.00000E-01 1.00000E+00 5.00000E-01
 -1       162 7.50000E-01 1.00000E+00 1.00000E+00
 -1       163 5.00000E-01 1.00000E+00 1.00000E+00
 -1       164 2.50000E-01 1.00000E+00 1.00000E+00
 -1       165 5.00000E-01 1.00000E+00 1.50000E+00
 -1       166 7.50000E-01 1.00000E+00 2.00000E+00
 -1       167 5.00000E-01 1.00000E+00 2.00000E+00
 -1       168 2.50000E-01 1.00000E+00 2.00000E+00
 -1       169 5.00000E-01 1.00000E+00 2.50000E+00
 -1       170 7.50000E-01 1.00000E+00 3.00000E+00
 -1       171 5.00000E-01 1.00000E+00 3.00000E+00
 -1       172 2.50000E-01 1.00000E+00 3.00000E+00
 -1       173 5.00000E-01 1.00000E+00 3.50000E+00
 -1       174 7.50000E-01 1.00000E+00 4.00000E+00
 -1       175 5.00000E-01 1.00000E+00 4.00000E+00
 -1       176 2.50000E-01 1.00000E+00 4.00000E+00
 -1       177 5.00000E-01 1.00000E+00 4.50000E+00
 -1       178 7.50000E-01 1.00000E+00 5.00000E+00
 -1       179 5.00000E-01 1.00000E+00 5.00000E+00
 -1       180 2.50000E-01 1.00000E+00 5.00000E+00
 -1       181 5.00000E-01 1.00000E+00 5.50000E+00
 -1       182 7.50000E-01 1.00000E+00 6.00000E+00
 -1       183 5.00000E-01 1.00000E+00 6.00000E+00
 -1       184 2.50000E-01 1.00000E+00 6.00000E+00
 -1       185 5.00000E-01 1.00000E+00 6.50000E+00
 -1       186 7.50000E-01 1.00000E+00 7.00000E+00
 -1       187 5.00000E-01 1.00000E+00 7.00000E+00
 -1       188 2.50000E-01 1.00000E+00 7.00000E+00
 -1       189 5.00000E-01 1.00000E+00 7.50000E+00
 -1       190 0.00000E+00 5.00000E-01 5.00000E-01
 -1       191 0.00000E+00 7.50000E-01 1.00000E+00
 -1       192 0.00000E+00 5.00000E-01 1.00000E+00
 -1       193 0.00000E+00 2.50000E-01 1.00000E+00
 -1       194 0.00000E+00 5.00000E-01 1.50000E+00
 -1       195 0.00000E+00 7.50000E-01 2.00000E+00
 -1       196 0.00000E+00 5.00000E-01 2.00000E+00
 -1       197 0.00000E+00 2.50000E-01 2.00000E+00
 -1       198 0.00000E+00 5.00000E-01 2.50000E+00
 -1       199 0.00000E+00 7.50000E-01 3.00000E+00
 -1       200 0.00000E+00 5.00000E-01 3.00000E+00
 -1       201 0.00000E+00 2.50000E-01 3.00000E+00
 -1       202 0.00000E+00 5.00000E-01 3.50000E+00
 -1       203 0.00000E+00 7.50000E-01 4.00000E+00
 -1       204 0.00000E+00 5.00000E-01 4.00000E+00
 -1       205 0.00000E+00 2.50000E-01 4.00000E+00
 -1       206 0.00000E+00 5.00000E-01 4.50000E+00
 -1       207 0.00000E+00 7.50000E-01 5.00000E+00
 -1       208 0.00000E+00 5.00000E-01 5.00000E+00
 -1       209 0.00000E+00 2.50000E-01 5.00000E+00
 -1       210 0.00000E+00 5.00000E-01 5.50000E+00
 -1       211 0.00000E+00 7.50000E-01 6.00000E+00
 -1       212 0.00000E+00 5.00000E-01 6.00000E+00
 -1       213 0.00000E+00 2.50000E-01 6.00000E+00
 -1       214 0.00000E+00 5.00000E-01 6.50000E+00
 -1       215 0.00000E+00 7.50000E-01 7.00000E+00
 -1       216 0.00000E+00 5.00000E-01 7.00000E+00
 -1       217 0.00000E+00 2.50000E-01 7.00000E+00
 -1       218 0.00000E+00 5.00000E-01 7.50000E+00
 -1       219 5.00000E-01 5.00000E-01 5.00000E-01
 -1       220 5.00000E-01 2.50000E-01 1.00000E+00
 -1       221 2.50000E-01 5.00000E-01 1.00000E+00
 -1       222 5.00000E-01 5.00000E-01 1.00000E+00
 -1       223 7.50000E-01 5.00000E-01 1.00000E+00
 -1       224 5.00000E-01 7.50000E-01 1.00000E+00
 -1       225 5.00000E-01 5.00000E-01 1.50000E+00
 -1       226 5.00000E-01 2.50000E-01 2.00000E+00
 -1       227 2.50000E-01 5.00000E-01 2.00000E+00
 -1       228 5.00000E-01 5.00000E-01 2.00000E+00
 -1       229 7.50000E-01 5.00000E-01 2.00000E+00
 -1       230 5.00000E-01 7.50000E-01 2.00000E+00
 -1       231 5.00000E-01 5.00000E-01 2.50000E+00
 -1       232 5.00000E-01 2.50000E-01 3.00000E+00
 -1       233 2.50000E-01 5.00000E-01 3.00000E+00
 -1       234 5.00000E-01 5.00000E-01 3.00000E+00
 -1       235 7.50000E-01 5.00000E-01 3.00000E+00
 -1       236 5.00000E-01 7.50000E-01 3.00000E+00
 -1       237 5.00000E-01 5.00000E-01 3.50000E+00
 -1       238 5.00000E-01 2.50000E-01 4.00000E+00
 -1       239 2.50000E-01 5.00000E-01 4.00000E+00
 -1       240 5.00000E-01 5.00000E-01 4.00000E+00
 -1       241 7.50000E-01 5.00000E-01 4.00000E+00
 -1       242 5.00000E-01 7.50000E-01 4.00000E+00
 -1       243 5.00000E-01 5.00000E-01 4.50000E+00
 -1       244 5.00000E-01 2.50000E-01 5.00000E+00
 -1       245 2.50000E-01 5.00000E-01 5.00000E+00
 -1       246 5.00000E-01 5.00000E-01 5.00000E+00
 -1       247 7.50000E-01 5.00000E-01 5.00000E+00
 -1       248 5.00000E-01 7.50000E-01 5.00000E+00
 -1       249 5.00000E-01 5.00000E-01 5.50000E+00
 -1       250 5.00000E-01 2.50000E-01 6.00000E+00
 -1       251 2.50000E-01 5.00000E-01 6.00000E+00
 -1       252 5.00000E-01 5.00000E-01 6.00000E+00
 -1       253 7.50000E-01 5.00000E-01 6.00000E+00
 -1       254 5.00000E-01 7.50000E-01 6.00000E+00
 -1       255 5.00000E-01 5.00000E-01 6.50000E+00
 -1       256 5.00000E-01 2.50000E-01 7.00000E+00
 -1       257 2.50000E-01 5.00000E-01 7.00000E+00
 -1       258 5.00000E-01 5.00000E-01 7.00000E+00
 -1       259 7.50000E-01 5.00000E-01 7.00000E+00
 -1       260 5.00000E-01 7.50000E-01 7.00000E+00
 -1       261 5.00000E-01 5.00000E-01 7.50000E+00
 -3
    3C                            32                                     1
 -1         1    4    0    1
 -2         1        10        95        19        61       105       222       192         9        93
 -2        94        20        62       103       219       190       104       220       221       193
 -1         2    4    0    1
 -2        10         2        13        95       105        34       134       222        11        12
 -2        96        93       103        33       132       219       106       133       223       220
 -1         3    4    0    1
 -2        19        95        16         4       192       222       163        79        94        97
 -2        17        18       190       219       161        78       221       224       164       191
 -1         4    4    0    1
 -2        95        13         3        16       222       134        64       163        96        14
 -2        15        97       219       132        63       161       223       135       162       224
 -1         5    4    0    1
 -2        61       105       222       192        59       109       228       196       104       220
 -2       221       193        60       107       225       194       108       226       227       197
 -1         6    4    0    1
 -2       105        34       134       222       109        36       138       228       106       133
 -2       223       220       107        35       136       225       110       137       229       226
 -1         7    4    0    1
 -2       192       222       163        79       196       228       167        81       221       224
 -2       164       191       194       225       165        80       227       230       168       195
 -1         8    4    0    1
 -2       222       134        64       163       228       138        66       167       223       135
 -2       162       224       225       136        65       165       229       139       166       230
 -1         9    4    0    1
 -2        59       109       228       196        57       113       234       200       108       226
 -2       227       197        58       111       231       198       112       232       233       201
 -1        10    4    0    1
 -2       109        36       138       228       113        38       142       234       110       137
 -2       229       226       111        37       140       231       114       141       235       232
 -1        11    4    0    1
 -2       196       228       167        81       200       234       171        83       227       230
 -2       168       195       198       231       169        82       233       236       172       199
 -1        12    4    0    1
 -2       228       138        66       167       234       142        68       171       229       139
 -2       166       230       231       140        67       169       235       143       170       236
 -1        13    4    0    1
 -2        57       113       234       200        55       117       240       204       112       232
 -2       233       201        56       115       237       202       116       238       239       205
 -1        14    4    0    1
 -2       113        38       142       234       117        40       146       240       114       141
 -2       235       232       115        39       144       237       118       145       241       238
 -1        15    4    0    1
 -2       200       234       171        83       204       240       175        85       233       236
 -2       172       199       202       237       173        84       239       242       176       203
 -1        16    4    0    1
 -2       234       142        68       171       240       146        70       175       235       143
 -2       170       236       237       144        69       173       241       147       174       242
 -1        17    4    0    1
 -2        55       117       240       204        53       121       246       208       116       238
 -2       239       205        54       119       243       206       120       244       245       209
 -1        18    4    0    1
 -2       117        40       146       240       121        42       150       246       118       145
 -2       241       238       119        41       148       243       122       149       247       244
 -1        19    4    0    1
 -2       204       240       175        85       208       246       179        87       239       242
 -2       176       203       206       243       177        86       245       248       180       207
 -1        20    4    0    1
 -2       240       146        70       175       246       150        72       179       241       147
 -2       174       242       243       148        71       177       247       151       178       248
 -1        21    4    0    1
 -2        53       121       246       208        51       125       252       212       120       244
 -2       245       209        52       123       249       210       124       250       251       213
 -1        22    4    0    1
 -2       121        42       150       246       125        44       154       252       122       149
 -2       247       244       123        43       152       249       126       153       253       250
 -1        23    4    0    1
 -2       208       246       179        87       212       252       183        89       245       248
 -2       180       207       210       249       181        88       251       254       184       211
 -1        24    4    0    1
 -2       246       150        72       179       252       154        74       183       247       151
 -2       178       248       249       152        73       181       253       155       182       254
 -1        25    4    0    1
 -2        51       125       252       212        49       129       258       216       124       250
 -2       251       213        50       127       255       214       128       256       257       217
 -1        26    4    0    1
 -2       125        44       154       252       129        46       158       258       126       153
 -2       253       250       127        45       156       255       130       157       259       256
 -1        27    4    0    1
 -2       212       252       183        89       216       258       187        91       251       254
 -2       184       211       214       255       185        90       257       260       188       215
 -1        28    4    0    1
 -2       252       154        74       183       258       158        76       187       253       155
 -2       182       254       255       156        75       185       259       159       186       260
 -1        29    4    0    1
 -2        49       129       258       216         5        22       100        31       128       256
 -2       257       217        48       131       261       218        21        98        99        32
 -1        30    4    0    1
 -2       129        46       158       258        22         6        25       100       130       157
 -2       259       256       131        47       160       261        23        24       101        98
 -1        31    4    0    1
 -2       216       258       187        91        31       100        28         8       257       260
 -2       188       215       218       261       189        92        99       102        29        30
 -1        32    4    0    1
 -2       258       158        76       187       100        25         7        28       259       159
 -2       186       260       261       160        77       189       101        26        27       102
 -3
    1PSTEP                         1           1           1          
  100CL  101 1.000000000         261                     0    1           1
 -4  TOSTRAIN    6    1
 -5  EXX         1    4    1    1
 -5  EYY         1    4    2    2
 -5  EZZ         1    4    3    3
 -5  EXY         1    4    1    2
 -5  EYZ         1    4    2    3
 -5  EZX         1    4    3    1
 -1         1 2.56354E-13 5.57288E-13-2.08111E-12 3.57567E-13 9.77443E-13-2.98898E-13
 -1         2 2.56355E-13 5.57288E-13-2.08110E-12-3.57565E-13 9.77442E-13 2.98899E-13
 -1         3 2.56355E-13 5.57282E-13-2.08110E-12 3.57570E-13-9.77441E-13 2.98895E-13
 -1         4 2.56355E-13 5.57279E-13-2.08110E-12-3.57564E-13-9.77438E-13-2.98899E-13
 -1         5-4.04689E-13-4.04572E-13 2.96913E-12 3.49262E-13 2.58581E-12 2.58575E-12
 -1         6-4.04687E-13-4.04765E-13 2.96912E-12-3.49338E-13 2.58576E-12-2.58573E-12
 -1         7-4.04689E-13-4.04756E-13 2.96913E-12 3.49330E-13-2.58573E-12-2.58575E-12
 -1         8-4.04678E-13-4.04710E-13 2.96915E-12-3.49176E-13-2.58581E-12 2.58573E-12
 -1         9 3.78085E-14 8.21965E-13-2.13481E-12 2.93234E-13 8.88911E-13-1.14393E-13
 -1        10-1.80737E-13 1.08664E-12-2.18852E-12 1.71656E-18 8.00378E-13 8.97996E-19
 -1        11 3.78085E-14 8.21966E-13-2.13481E-12-2.93231E-13 8.88910E-13 1.14394E-13
 -1        12-2.39587E-13-3.40397E-13 1.45493E-12 3.35193E-14-1.21164E-12-1.59471E-13
 -1        13-7.35528E-13-1.23808E-12 4.99097E-12 2.28796E-19 7.30891E-19-6.17837E-13
 -1        14-2.39586E-13-3.40398E-13 1.45493E-12-3.35168E-14 1.21164E-12-1.59470E-13
 -1        15 3.78081E-14 8.21969E-13-2.13481E-12 2.93236E-13-8.88909E-13 1.14392E-13
 -1        16-1.80736E-13 1.08665E-12-2.18852E-12-2.72810E-18-8.00379E-13-7.14564E-19
 -1        17 3.78109E-14 8.21962E-13-2.13481E-12-2.93236E-13-8.88909E-13-1.14395E-13
 -1        18-2.39587E-13-3.40397E-13 1.45493E-12 3.35185E-14 1.21164E-12 1.59470E-13
 -1        19-7.35528E-13-1.23808E-12 4.99097E-12-1.81374E-18-9.50253E-19 6.17838E-13
 -1        20-2.39587E-13-3.40399E-13 1.45493E-12-3.35188E-14-1.21164E-12 1.59470E-13
 -1        21-1.28611E-13 8.71128E-13-2.07194E-12 4.01745E-13-8.69633E-13-1.27432E-12
 -1        22 1.47422E-13 2.14692E-12-7.11302E-12 4.73702E-17-4.32508E-12-2.01180E-17
 -1        23-1.28655E-13 8.71120E-13-2.07195E-12-4.01736E-13-8.69657E-13 1.27431E-12
 -1        24 8.71027E-13-1.28719E-13-2.07191E-12-4.01791E-13-1.27434E-12 8.69719E-13
 -1        25 2.14674E-12 1.47383E-13-7.11294E-12-2.98541E-17-3.85507E-17 4.32517E-12
 -1        26 8.71022E-13-1.28658E-13-2.07190E-12 4.01757E-13 1.27432E-12 8.69712E-13
 -1        27-1.28637E-13 8.71023E-13-2.07195E-12 4.01778E-13 8.69676E-13 1.27431E-12
 -1        28 1.47433E-13 2.14677E-12-7.11303E-12-1.77430E-17 4.32507E-12 8.96782E-19
 -1        29-1.28614E-13 8.71013E-13-2.07194E-12-4.01719E-13 8.69622E-13-1.27431E-12
 -1        30 8.71008E-13-1.28619E-13-2.07191E-12-4.01681E-13 1.27432E-12-8.69715E-13
 -1        31 2.14669E-12 1.47404E-13-7.11297E-12 2.54018E-17 2.37092E-17-4.32516E-12
 -1        32 8.71000E-13-1.28618E-13-2.07192E-12 4.01749E-13-1.27430E-12-8.69706E-13
 -1        33-1.37806E-13-1.87067E-13 3.34814E-13-1.73225E-13 1.41101E-14-4.43409E-14
 -1        34-6.01052E-13-5.28936E-13 2.15961E-12 1.05549E-13-4.84591E-13-7.85532E-14
 -1        35-5.44768E-13-4.07656E-13 1.62911E-12 4.88982E-14-4.45351E-14 5.64256E-14
 -1        36-4.55866E-13-6.00401E-13 1.69034E-12-4.68307E-14 5.03813E-15-4.98648E-14
 -1        37-4.99195E-13-5.05306E-13 1.68015E-12-2.34099E-15 3.28036E-14-6.97777E-16
 -1        38-5.05008E-13-4.94791E-13 1.67644E-12-7.26908E-15-3.29644E-14 1.10640E-14
 -1        39-5.08326E-13-5.05144E-13 1.67683E-12 1.07399E-14 4.40908E-15-9.26250E-15
 -1        40-4.96290E-13-5.00760E-13 1.68842E-12-1.29907E-14 8.16522E-15-5.27315E-15
 -1        41-5.04170E-13-5.04668E-13 1.67507E-12 1.80597E-15-1.27277E-14 1.44636E-14
 -1        42-4.79246E-13-4.78370E-13 1.66028E-12-5.89080E-14-1.22794E-13 1.21726E-13
 -1        43-5.41796E-13-5.41729E-13 1.70247E-12 6.48683E-14 1.36626E-13-1.37074E-13
 -1        44-5.51702E-13-5.51931E-13 1.60276E-12-9.95589E-14 2.33448E-13-2.33208E-13
 -1        45-3.97138E-13-3.97039E-13 1.81578E-12-5.83452E-15-4.22025E-13 4.22163E-13
 -1        46-5.16411E-13-5.16259E-13 1.04360E-12 1.64044E-13-5.74752E-13 5.74659E-13
 -1        47-5.46545E-13-5.46577E-13 1.45123E-12-2.54327E-13 1.10449E-12-1.10454E-12
 -1        48-5.46545E-13-5.46519E-13 1.45122E-12 2.54287E-13 1.10454E-12 1.10455E-12
 -1        49-5.16402E-13-5.16414E-13 1.04360E-12-1.64037E-13-5.74753E-13-5.74668E-13
 -1        50-3.97130E-13-3.97078E-13 1.81578E-12 5.86459E-15-4.22006E-13-4.22162E-13
 -1        51-5.51701E-13-5.51845E-13 1.60277E-12 9.95742E-14 2.33482E-13 2.33211E-13
 -1        52-5.41797E-13-5.41677E-13 1.70248E-12-6.48246E-14 1.36635E-13 1.37072E-13
 -1        53-4.79249E-13-4.78290E-13 1.66028E-12 5.89761E-14-1.22748E-13-1.21728E-13
 -1        54-5.04170E-13-5.04665E-13 1.67507E-12-1.76892E-15-1.27179E-14-1.44636E-14
 -1        55-4.96292E-13-5.00792E-13 1.68841E-12 1.29973E-14 8.15061E-15 5.27634E-15
 -1        56-5.08324E-13-5.05117E-13 1.67684E-12-1.07367E-14 4.40104E-15 9.25924E-15
 -1        57-5.05004E-13-4.94762E-13 1.67644E-12 7.26436E-15-3.29710E-14-1.10665E-14
 -1        58-4.99192E-13-5.05327E-13 1.68015E-12 2.33118E-15 3.27915E-14 6.98201E-16
 -1        59-4.55861E-13-6.00400E-13 1.69033E-12 4.68456E-14 5.02830E-15 4.98667E-14
 -1        60-5.44764E-13-4.07645E-13 1.62912E-12-4.88854E-14-4.45376E-14-5.64283E-14
 -1        61-6.01052E-13-5.28942E-13 2.15962E-12-1.05543E-13-4.84600E-13 7.85489E-14
 -1        62-1.37806E-13-1.87060E-13 3.34813E-13 1.73225E-13 1.41082E-14 4.43406E-14
 -1        63-1.37806E-13-1.87064E-13 3.34812E-13 1.73224E-13-1.41105E-14-4.43435E-14
 -1        64-6.01053E-13-5.28934E-13 2.15961E-12-1.05552E-13 4.84591E-13-7.85517E-14
 -1        65-5.44766E-13-4.07654E-13 1.62912E-12-4.88968E-14 4.45348E-14 5.64273E-14
 -1        66-4.55863E-13-6.00424E-13 1.69033E-12 4.68274E-14-5.03412E-15-4.98688E-14
 -1        67-4.99197E-13-5.05316E-13 1.68014E-12 2.33583E-15-3.27978E-14-7.00862E-16
 -1        68-5.05009E-13-4.94748E-13 1.67644E-12 7.28408E-15 3.29678E-14 1.10694E-14
 -1        69-5.08321E-13-5.05147E-13 1.67684E-12-1.07338E-14-4.41264E-15-9.25633E-15
 -1        70-4.96291E-13-5.00762E-13 1.68841E-12 1.29903E-14-8.16293E-15-5.27956E-15
 -1        71-5.04172E-13-5.04614E-13 1.67506E-12-1.77015E-15 1.27291E-14 1.44652E-14
 -1        72-4.79243E-13-4.78318E-13 1.66029E-12 5.89294E-14 1.22770E-13 1.21734E-13
 -1        73-5.41791E-13-5.41724E-13 1.70247E-12-6.48887E-14-1.36636E-13-1.37078E-13
 -1        74-5.51698E-13-5.51926E-13 1.60275E-12 9.95279E-14-2.33437E-13-2.33216E-13
 -1        75-3.97132E-13-3.97153E-13 1.81579E-12 5.84040E-15 4.22029E-13 4.22168E-13
 -1        76-5.16406E-13-5.16383E-13 1.04358E-12-1.64037E-13 5.74703E-13 5.74668E-13
 -1        77-5.46545E-13-5.46560E-13 1.45120E-12 2.54308E-13-1.10453E-12-1.10455E-12
 -1        78-1.37807E-13-1.87058E-13 3.34817E-13-1.73223E-13-1.41057E-14 4.43418E-14
 -1        79-6.01054E-13-5.28916E-13 2.15962E-12 1.05545E-13 4.84598E-13 7.85522E-14
 -1        80-5.44763E-13-4.07654E-13 1.62912E-12 4.88947E-14 4.45357E-14-5.64272E-14
 -1        81-4.55863E-13-6.00418E-13 1.69034E-12-4.68261E-14-5.02967E-15 4.98676E-14
 -1        82-4.99196E-13-5.05291E-13 1.68015E-12-2.34173E-15-3.27822E-14 7.02966E-16
 -1        83-5.05005E-13-4.94718E-13 1.67644E-12-7.28207E-15 3.29670E-14-1.10657E-14
 -1        84-5.08320E-13-5.05138E-13 1.67684E-12 1.07570E-14-4.40828E-15 9.25722E-15
 -1        85-4.96291E-13-5.00757E-13 1.68841E-12-1.29738E-14-8.13666E-15 5.27849E-15
 -1        86-5.04177E-13-5.04604E-13 1.67507E-12 1.80574E-15 1.27302E-14-1.44629E-14
 -1        87-4.79250E-13-4.78284E-13 1.66029E-12-5.88888E-14 1.22759E-13-1.21731E-13
 -1        88-5.41798E-13-5.41717E-13 1.70248E-12 6.48729E-14-1.36650E-13 1.37072E-13
 -1        89-5.51711E-13-5.52007E-13 1.60276E-12-9.95664E-14-2.33518E-13 2.33206E-13
 -1        90-3.97132E-13-3.97139E-13 1.81579E-12-5.89819E-15 4.22014E-13-4.22162E-13
 -1        91-5.16404E-13-5.16282E-13 1.04361E-12 1.63976E-13 5.74790E-13-5.74651E-13
 -1        92-5.46545E-13-5.46497E-13 1.45123E-12-2.54253E-13-1.10453E-12 1.10455E-12
 -1        93-4.58134E-13 2.10940E-13 1.39378E-12-2.01835E-19-1.19931E-12-2.14727E-19