
 displacements (vx,vy,vz) for set NALL and time  0.1000000E-03

         1  0.000000E+00 -1.000000E-04  0.000000E+00
         2 -1.997725E-05 -2.886876E-05 -3.447619E-10
         3 -2.243884E-06 -2.887726E-05 -7.446315E-10
         4  0.000000E+00 -1.000000E-04  0.000000E+00
         5 -1.625237E-05 -5.680570E-05 -1.214837E-08
         6 -5.256711E-06 -2.890180E-05  6.385182E-11
         7 -1.287011E-07 -5.723103E-05  7.277827E-10
         8  0.000000E+00 -1.000000E-04  0.000000E+00
         9 -3.041725E-09 -2.986616E-05  2.344525E-10
        10  0.000000E+00 -1.000000E-04  0.000000E+00
        11 -3.797652E-07 -2.955896E-05  1.090378E-10
        12 -2.158191E-07 -5.636377E-05  5.906455E-10
        13  0.000000E+00 -1.000000E-04  0.000000E+00
        14  2.203960E-08 -2.962973E-05 -3.770889E-11
        15  0.000000E+00 -1.000000E-04  0.000000E+00
        16  3.342226E-08 -2.969618E-05 -8.961879E-11
        17  4.360579E-08 -5.612333E-05 -1.195105E-10
        18  0.000000E+00 -1.000000E-04  0.000000E+00
        19  1.705745E-08 -2.962928E-05  5.537404E-11
        20  0.000000E+00 -1.000000E-04  0.000000E+00
        21  1.813496E-08 -2.962659E-05  1.059516E-10
        22  1.622427E-09 -5.609583E-05  9.653871E-11
        23  0.000000E+00 -1.000000E-04  0.000000E+00
        24  5.939035E-11 -2.962819E-05 -4.479694E-11
        25  0.000000E+00 -1.000000E-04  0.000000E+00
        26  7.101526E-09 -2.962706E-05  3.176140E-11
        27  5.342267E-11 -5.608901E-05 -1.599545E-10
        28  0.000000E+00 -1.000000E-04  0.000000E+00
        29 -1.693863E-08 -2.962928E-05  3.942323E-11
        30  0.000000E+00 -1.000000E-04  0.000000E+00
        31 -6.982735E-09 -2.962706E-05 -1.129752E-10
        32 -1.515602E-09 -5.609583E-05  2.642715E-10
        33  0.000000E+00 -1.000000E-04  0.000000E+00
        34 -2.192076E-08 -2.962973E-05 -1.805237E-11
        35  0.000000E+00 -1.000000E-04  0.000000E+00
        36 -1.801611E-08 -2.962659E-05  4.154913E-11
        37 -4.349902E-08 -5.612333E-05 -1.325104E-10
        38  0.000000E+00 -1.000000E-04  0.000000E+00
        39  3.160224E-09 -2.986617E-05 -1.125772E-10
        40  0.000000E+00 -1.000000E-04  0.000000E+00
        41 -3.330364E-08 -2.969618E-05  8.890588E-11
        42  2.159250E-07 -5.636378E-05 -5.586020E-10
        43  0.000000E+00 -1.000000E-04  0.000000E+00
        44  2.244002E-06 -2.887727E-05  6.255273E-10
        45  0.000000E+00 -1.000000E-04  0.000000E+00
        46  3.798845E-07 -2.955897E-05 -2.187171E-10
        47  1.288018E-07 -5.723104E-05 -6.410157E-10
        48  0.000000E+00 -1.000000E-04  0.000000E+00
        49  1.997736E-05 -2.886884E-05  3.197319E-10
        50  0.000000E+00 -1.000000E-04  0.000000E+00
        51  5.256829E-06 -2.890183E-05  5.406530E-11
        52  1.625247E-05 -5.680575E-05  1.243034E-08
        53  0.000000E+00 -1.000000E-04  0.000000E+00
        54 -9.391742E-06 -7.417748E-06  1.067954E-09
        55 -2.137290E-06 -7.345700E-06  2.408297E-10
        56 -1.488534E-05 -1.401855E-05  4.543859E-09
        57 -5.157441E-06 -6.693108E-06  2.064884E-10
        58 -2.456209E-06 -1.495409E-05 -3.446361E-11
        59 -3.191765E-07 -8.300485E-06 -7.330303E-12
        60 -9.974456E-07 -7.883490E-06 -9.269953E-11
        61 -1.294741E-07 -1.581470E-05 -4.074641E-10
        62 -3.368693E-08 -8.656099E-06 -8.647778E-11
        63 -9.354897E-08 -8.563807E-06 -2.902859E-11
        64  1.514184E-08 -1.610020E-05 -1.812033E-11
        65  7.725537E-09 -8.786978E-06 -1.290534E-12
        66  2.842288E-09 -8.740612E-06 -4.295702E-11
        67  1.436100E-08 -1.614437E-05  6.087682E-11
        68  3.542394E-11 -8.812659E-06  6.431682E-11
        69  5.390247E-09 -8.807169E-06  4.651006E-11
        70  4.711709E-11 -1.615431E-05  4.129117E-11
        71 -7.654701E-09 -8.786980E-06 -7.463375E-11
        72 -5.319400E-09 -8.807170E-06  1.581819E-11
        73 -1.426674E-08 -1.614437E-05 -1.226302E-10
        74  3.375760E-08 -8.656102E-06  7.247407E-11
        75 -2.771484E-09 -8.740614E-06 -7.135557E-11
        76 -1.504754E-08 -1.610020E-05  3.288616E-12
        77  3.192465E-07 -8.300493E-06  1.622492E-13
        78  9.361945E-08 -8.563811E-06  5.903917E-11
        79  1.295685E-07 -1.581471E-05  5.076519E-10
        80  2.137359E-06 -7.345718E-06 -2.660196E-10
        81  9.975145E-07 -7.883502E-06  1.027559E-10
        82  2.456302E-06 -1.495411E-05 -7.454600E-11
        83  9.391814E-06 -7.417784E-06 -1.076405E-09
        84  5.157508E-06 -6.693136E-06 -2.466718E-10
        85  1.488543E-05 -1.401861E-05 -4.826608E-09
        86 -4.004564E-06 -1.981956E-06 -1.670142E-10
        87 -1.714465E-06 -1.672341E-06 -8.817197E-11
        88 -6.251861E-06 -3.900898E-06 -6.299482E-10
        89 -2.868532E-06 -1.694356E-06 -1.108840E-10
        90 -2.096041E-06 -3.490914E-06 -2.126082E-10
        91 -5.143263E-07 -2.044271E-06 -1.207418E-11
        92 -9.483342E-07 -1.837732E-06  2.391840E-11
        93 -4.368827E-07 -4.207756E-06  2.194726E-10
        94 -1.061860E-07 -2.389034E-06  1.807500E-11
        95 -2.371784E-07 -2.241321E-06  4.612683E-11
        96 -7.117268E-08 -4.591625E-06  3.725605E-12
        97 -1.997436E-08 -2.528091E-06  1.390996E-11
        98 -4.937215E-08 -2.475485E-06 -1.518216E-11
        99 -6.566981E-09 -4.730566E-06 -5.270892E-11
       100  1.841834E-11 -2.562927E-06 -2.347501E-11
       101 -7.025453E-09 -2.555518E-06 -4.111002E-12
       102  2.563990E-11 -4.767170E-06  2.275818E-11
       103  2.001109E-08 -2.528092E-06  5.269428E-13
       104  7.062264E-09 -2.555518E-06 -6.066023E-12
       105  6.618187E-09 -4.730567E-06  1.783220E-11
       106  1.062222E-07 -2.389037E-06  3.151141E-12
       107  4.940869E-08 -2.475487E-06  1.962979E-11
       108  7.122353E-08 -4.591628E-06  1.494329E-11
       109  5.143614E-07 -2.044276E-06  2.452321E-12
       110  2.372142E-07 -2.241325E-06 -2.686593E-11
       111  4.369325E-07 -4.207763E-06 -2.467129E-10
       112  1.714499E-06 -1.672352E-06  9.221940E-11
       113  9.483686E-07 -1.837740E-06 -4.902138E-11
       114  2.096089E-06 -3.490928E-06  2.168010E-10
       115  4.004604E-06 -1.981974E-06  2.594203E-10
       116  2.868567E-06 -1.694369E-06  1.416815E-10
       117  6.251916E-06 -3.900923E-06  8.061100E-10
       118 -1.793107E-06 -6.253133E-07  7.908366E-12
       119 -9.842526E-07 -3.429005E-07  2.032441E-11
       120 -2.691053E-06 -1.131075E-06  1.939622E-10
       121 -1.371269E-06 -4.140211E-07  3.637396E-11
       122 -1.328717E-06 -7.579902E-07  8.632208E-11
       123 -4.007971E-07 -4.335245E-07  9.181648E-12
       124 -6.498038E-07 -3.637875E-07  2.912038E-12
       125 -4.792758E-07 -9.668398E-07 -5.413029E-11
       126 -1.356370E-07 -5.828155E-07  1.835821E-14
       127 -2.423502E-07 -5.092939E-07 -1.850606E-11
       128 -1.316232E-07 -1.198489E-06 -2.625902E-11
       129 -3.901639E-08 -6.743375E-07 -7.108070E-12
       130 -7.484477E-08 -6.376710E-07  4.124395E-12
       131 -3.076988E-08 -1.321278E-06  2.619113E-11
       132  9.326715E-12 -7.033286E-07  3.677698E-12
       133 -1.605943E-08 -6.962829E-07  3.962186E-12
       134  1.312723E-11 -1.355789E-06 -1.230572E-11
       135  3.903491E-08 -6.743382E-07  1.641270E-12
       136  1.607805E-08 -6.962832E-07 -7.737265E-12
       137  3.079600E-08 -1.321279E-06 -1.933264E-11
       138  1.356551E-07 -5.828171E-07  3.432222E-13
       139  7.486313E-08 -6.376721E-07  1.736259E-12
       140  1.316488E-07 -1.198491E-06  3.348960E-11
       141  4.008145E-07 -4.335274E-07 -4.114830E-12
       142  2.423680E-07 -5.092961E-07  1.694180E-11
       143  4.793004E-07 -9.668439E-07  5.995438E-11
       144  9.842699E-07 -3.429052E-07 -2.830022E-11
       145  6.498210E-07 -3.637912E-07  1.071711E-12
       146  1.328741E-06 -7.579971E-07 -9.546164E-11
       147  1.793127E-06 -6.253213E-07 -4.956061E-11
       148  1.371287E-06 -4.140272E-07 -5.251240E-11
       149  2.691082E-06 -1.131087E-06 -2.009893E-10
       150 -7.594407E-07 -1.940008E-07 -7.982542E-12
       151 -4.986537E-07 -5.293692E-08 -4.954943E-12
       152 -1.171276E-06 -3.471726E-07 -8.247840E-11
       153 -6.426554E-07 -1.044355E-07 -7.420964E-12
       154 -7.104189E-07 -1.419208E-07 -2.298247E-11
       155 -2.565423E-07 -5.468426E-08 -3.042336E-12
       156 -3.701139E-07 -4.172784E-08 -7.208043E-12
       157 -3.296690E-07 -1.719887E-07  7.110307E-12
       158 -1.112043E-07 -1.073916E-07 -5.456137E-13
       159 -1.726233E-07 -7.981819E-08  6.258114E-12
       160 -1.274753E-07 -2.639826E-07  1.518544E-11
       161 -3.830931E-08 -1.511748E-07  1.966938E-12
       162 -6.782853E-08 -1.319931E-07  1.470909E-12
       163 -4.045413E-08 -3.297319E-07 -5.338391E-12
       164  4.682558E-12 -1.666742E-07 -1.187668E-12
       165 -1.726326E-08 -1.625718E-07 -2.333209E-12
       166  6.616030E-12 -3.511806E-07  1.591634E-12
       167  3.831859E-08 -1.511752E-07  1.471905E-13
       168  1.727260E-08 -1.625720E-07  2.928643E-12
       169  4.046725E-08 -3.297325E-07  5.093523E-12
       170  1.112133E-07 -1.073924E-07  8.015175E-13
       171  6.783770E-08 -1.319937E-07 -1.668622E-12
       172  1.274881E-07 -2.639838E-07 -1.713049E-11
       173  2.565510E-07 -5.468564E-08  8.299120E-13
       174  1.726322E-07 -7.981928E-08 -6.795386E-12
       175  3.296813E-07 -1.719907E-07 -1.045394E-11
       176  4.986625E-07 -5.293914E-08  6.289845E-12
       177  3.701226E-07 -4.172959E-08  6.191842E-12
       178  7.104313E-07 -1.419239E-07  2.659473E-11
       179  7.594510E-07 -1.940048E-07  1.068481E-11
       180  6.426646E-07 -1.044384E-07  1.111079E-11
       181  1.171291E-06 -3.471782E-07  6.345706E-11
       182 -3.348994E-07 -7.336062E-08  2.699919E-12
       183 -2.435843E-07 -1.859272E-09  2.776174E-12
       184 -5.034709E-07 -1.205743E-07  2.214935E-11
       185 -2.922798E-07 -2.972604E-08  3.221544E-12
       186 -3.501402E-07 -1.555871E-08  6.748774E-12
       187 -1.450421E-07  1.302785E-08  4.016968E-13
       188 -1.923058E-07  1.084285E-08  1.709835E-12
       189 -1.960018E-07 -4.320216E-09 -1.381762E-13
       190 -7.264418E-08 -7.529779E-10 -1.377203E-13
       191 -1.050606E-07  7.906055E-09  3.664653E-13
       192 -9.188779E-08 -3.286413E-08 -4.587984E-12
       193 -2.857833E-08 -1.723425E-08 -2.979343E-13
       194 -4.797890E-08 -9.607983E-09 -2.056610E-12
       195 -3.413091E-08 -6.040406E-08 -7.418045E-13
       196  2.338561E-12 -2.370703E-08  4.228759E-15
       197 -1.338916E-08 -2.199051E-08  2.644777E-14
       198  3.313314E-12 -7.073110E-08 -7.271193E-13
       199  2.858296E-08 -1.723445E-08  3.858327E-13
       200  1.339383E-08 -2.199061E-08  1.002390E-13
       201  3.413747E-08 -6.040434E-08  1.283062E-12
       202  7.264868E-08 -7.533864E-10 -7.685422E-13
       203  4.798347E-08 -9.608282E-09  1.344504E-12
       204  9.189417E-08 -3.286472E-08  5.247061E-12
       205  1.450465E-07  1.302719E-08  8.947871E-13
       206  1.050650E-07  7.905525E-09  8.256986E-13
       207  1.960080E-07 -4.321177E-09  1.430231E-12
       208  2.435887E-07 -1.860345E-09 -2.177588E-12
       209  1.923101E-07  1.084201E-08 -1.723620E-12
       210  3.501464E-07 -1.556024E-08 -6.387335E-12
       211  3.349045E-07 -7.336258E-08 -1.202752E-12
       212  2.922845E-07 -2.972747E-08 -2.796807E-12
       213  5.034782E-07 -1.205771E-07 -1.534373E-11
       214 -1.469869E-07 -2.978626E-08 -1.050839E-12
       215 -1.144490E-07  3.696102E-09 -7.857970E-13
       216 -2.219795E-07 -4.680691E-08 -6.391886E-12
       217 -1.324220E-07 -1.042274E-08 -9.978714E-13
       218 -1.677732E-07  2.879244E-09 -2.055046E-12
       219 -7.527774E-08  1.571629E-08  1.284929E-13
       220 -9.492107E-08  1.190236E-08 -4.717094E-13
       221 -1.056728E-07  1.719334E-08 -1.772826E-14
       222 -4.201416E-08  1.436008E-08  3.611211E-14
       223 -5.764040E-08  1.601751E-08 -5.210291E-13
       224 -5.618400E-08  1.159388E-08  1.007381E-12
       225 -1.803154E-08  9.446349E-09 -5.918350E-14
       226 -2.902841E-08  1.188920E-08  5.250554E-13
       227 -2.316541E-08  2.273928E-09  9.894917E-13
       228  1.156460E-12  7.163624E-09  6.949520E-14
       229 -8.623752E-09  7.811121E-09  5.123693E-13
       230  1.648830E-12 -1.705732E-09  2.311454E-13
       231  1.803383E-08  9.446253E-09 -1.520474E-13
       232  8.626058E-09  7.811073E-09 -5.192074E-13
       233  2.316868E-08  2.273790E-09 -8.841181E-13
       234  4.201639E-08  1.435988E-08  3.700106E-13
       235  2.903067E-08  1.188906E-08 -3.196267E-13
       236  5.618717E-08  1.159360E-08 -1.225100E-12
       237  7.527991E-08  1.571596E-08 -3.150084E-13
       238  5.764259E-08  1.601725E-08  1.309249E-13
       239  1.056758E-07  1.719288E-08  2.491600E-13
       240  1.144512E-07  3.695564E-09  5.970523E-13
       241  9.492324E-08  1.190195E-08  7.629223E-13
       242  1.677763E-07  2.878488E-09  1.159827E-12
       243  1.469894E-07 -2.978725E-08  3.594237E-13
       244  1.324243E-07 -1.042346E-08  3.172262E-13
       245  2.219832E-07 -4.680831E-08  2.327703E-12
       246 -6.379541E-08 -1.396401E-08  9.136369E-13
       247 -5.148347E-08  2.142505E-09 -1.011879E-13
       248 -9.739731E-08 -2.044911E-08  2.258656E-12
       249 -5.817847E-08 -4.845972E-09  1.391485E-13
       250 -7.747845E-08  3.070375E-09  2.784110E-13
       251 -3.617973E-08  9.680936E-09 -2.289767E-14
       252 -4.398712E-08  6.800389E-09  5.855059E-14
       253 -5.294411E-08  1.276137E-08 -2.647320E-13
       254 -2.168050E-08  1.114703E-08 -2.038852E-13
       255 -2.867541E-08  1.091683E-08 -7.187687E-14
       256 -3.074180E-08  1.345394E-08 -6.810915E-13
       257 -9.838642E-09  1.023152E-08  7.017182E-14
       258 -1.544689E-08  1.079203E-08 -7.830265E-14
       259 -1.361295E-08  1.112203E-08 -4.383165E-13
       260  5.503080E-13  9.614298E-09 -9.673695E-14
       261 -4.789578E-09  9.804604E-09 -2.531622E-13
       262  8.051426E-13  9.886135E-09 -9.933910E-14
       263  9.839731E-09  1.023148E-08  4.329528E-14
       264  4.790676E-09  9.804581E-09  1.863120E-13
       265  1.361454E-08  1.112197E-08  2.731334E-13
       266  2.168156E-08  1.114693E-08 -4.499607E-14
       267  1.544796E-08  1.079195E-08  1.190039E-14
       268  3.074335E-08  1.345380E-08  5.045080E-13
       269  3.618076E-08  9.680774E-09 -4.134230E-15
       270  2.867646E-08  1.091670E-08  4.180036E-14
       271  5.294562E-08  1.276114E-08  1.676295E-13
       272  5.148452E-08  2.142231E-09  8.696759E-14
       273  4.398816E-08  6.800180E-09 -2.576988E-13
       274  7.747999E-08  3.069993E-09  3.410514E-13
       275  6.379664E-08 -1.396452E-08  4.150479E-13
       276  5.817958E-08 -4.846344E-09  2.533886E-13
       277  9.739910E-08 -2.044983E-08  2.306491E-13
       278 -2.402598E-08 -7.638974E-09 -1.622471E-13
       279 -1.933973E-08  6.156787E-10 -8.058639E-14
       280 -4.066137E-08 -1.036867E-08 -6.189324E-13
       281 -2.159087E-08 -2.778350E-09 -1.388480E-13
       282 -3.300972E-08  1.310437E-09 -2.115990E-13
       283 -1.409340E-08  4.892138E-09  1.788780E-14
       284 -1.672574E-08  3.231604E-09 -5.531710E-14
       285 -2.370025E-08  7.051734E-09  4.006971E-13
       286 -8.880107E-09  6.215049E-09  1.076738E-13
       287 -1.145327E-08  5.798833E-09  3.323772E-14
       288 -1.459386E-08  8.679682E-09  4.408778E-13
       289 -4.192647E-09  6.279135E-09 -1.466102E-14
       290 -6.467214E-09  6.327731E-09  9.159767E-14
       291 -6.767883E-09  8.476491E-09  1.784106E-13
       292  2.190573E-13  6.170165E-09  6.131409E-14
       293 -2.063400E-09  6.208783E-09  3.605972E-14
       294  3.627875E-13  8.199638E-09 -1.843566E-14
       295  4.193081E-09  6.279114E-09 -1.618150E-14
       296  2.063836E-09  6.208773E-09 -1.360219E-15
       297  6.768601E-09  8.476459E-09 -1.215820E-13
       298  8.880529E-09  6.215006E-09 -2.414757E-14
       299  6.467643E-09  6.327699E-09 -5.776310E-14
       300  1.459456E-08  8.679615E-09 -2.596299E-13
       301  1.409381E-08  4.892067E-09  7.692717E-14
       302  1.145369E-08  5.798777E-09  1.292719E-13
       303  2.370093E-08  7.051621E-09 -1.756610E-13
       304  1.934015E-08  6.155465E-10 -1.029717E-13
       305  1.672615E-08  3.231509E-09 -1.392217E-13
       306  3.301041E-08  1.310243E-09 -4.885695E-13
       307  2.402650E-08 -7.639243E-09 -2.168648E-13
       308  2.159132E-08 -2.778531E-09 -3.807974E-15
       309  4.066221E-08 -1.036905E-08  1.835824E-13
       310  0.000000E+00  0.000000E+00  0.000000E+00
       311  0.000000E+00  0.000000E+00  0.000000E+00
       312 -1.111844E-08 -5.375473E-09  5.057079E-13
       313  0.000000E+00  0.000000E+00  0.000000E+00
       314 -8.549907E-09  5.465569E-10  7.344017E-14
       315  0.000000E+00  0.000000E+00  0.000000E+00
       316  0.000000E+00  0.000000E+00  0.000000E+00
       317 -6.491340E-09  2.844222E-09 -3.902499E-13
       318  0.000000E+00  0.000000E+00  0.000000E+00
       319  0.000000E+00  0.000000E+00  0.000000E+00
       320 -4.175920E-09  3.600167E-09 -3.440593E-13
       321  0.000000E+00  0.000000E+00  0.000000E+00
       322  0.000000E+00  0.000000E+00  0.000000E+00
       323 -2.009689E-09  3.679437E-09 -5.865990E-14
       324  0.000000E+00  0.000000E+00  0.000000E+00
       325  0.000000E+00  0.000000E+00  0.000000E+00
       326  1.027411E-13  3.635707E-09  6.744852E-14
       327  0.000000E+00  0.000000E+00  0.000000E+00
       328  0.000000E+00  0.000000E+00  0.000000E+00
       329  2.009893E-09  3.679426E-09  6.988331E-14
       330  0.000000E+00  0.000000E+00  0.000000E+00
       331  0.000000E+00  0.000000E+00  0.000000E+00
       332  4.176118E-09  3.600144E-09  7.218523E-14
       333  0.000000E+00  0.000000E+00  0.000000E+00
       334  0.000000E+00  0.000000E+00  0.000000E+00
       335  6.491531E-09  2.844186E-09  2.196532E-13
       336  0.000000E+00  0.000000E+00  0.000000E+00
       337  0.000000E+00  0.000000E+00  0.000000E+00
       338  8.550097E-09  5.464933E-10  1.987318E-13
       339  0.000000E+00  0.000000E+00  0.000000E+00
       340  0.000000E+00  0.000000E+00  0.000000E+00
       341  1.111870E-08 -5.375640E-09 -2.342830E-13
