
 displacements (vx,vy,vz) for set NALL and time  0.1000000E+01

         1  3.000000E-02  0.000000E+00  0.000000E+00
         2  3.000000E-02  8.000000E+04  5.000000E+02
         3  3.000000E-02  0.000000E+00  0.000000E+00
         4  3.000000E-02  7.065178E+04  5.000000E+02
         5  3.000000E-02  0.000000E+00  0.000000E+00
         6  3.000000E-02  5.951031E+04  5.000000E+02
         7  3.000000E-02  0.000000E+00  0.000000E+00

 temperatures for set NALL and time  0.1000000E+01

         1  0.000000E+00
         2  5.000000E+02
         3  0.000000E+00
         4  5.000000E+02
         5  0.000000E+00
         6  5.000000E+02
         7  0.000000E+00
