
 displacements (vx,vy,vz) for set NALL and time  0.1000000E+01

         1  5.318996E-02  3.000000E+05  5.000000E+02
         2  5.318996E-02  1.864126E+05  5.000000E+02
         3  2.659498E-02  1.526428E+05  5.000000E+02
         4  2.659498E-02  1.526428E+05  5.000000E+02
         5  5.318996E-02  1.000000E+05  5.000000E+02
      1000  5.318996E-02  0.000000E+00  0.000000E+00
      1001  5.318996E-02  0.000000E+00  0.000000E+00
      2001  2.659498E-02  0.000000E+00  0.000000E+00
      3001  2.659498E-02  0.000000E+00  0.000000E+00
      4001  2.659498E-02  0.000000E+00  0.000000E+00
      5000  5.318996E-02  0.000000E+00  0.000000E+00
      5001  2.659498E-02  0.000000E+00  0.000000E+00

 temperatures for set NALL and time  0.1000000E+01

         1  5.000000E+02
         2  5.000000E+02
         3  5.000000E+02
         4  5.000000E+02
         5  5.000000E+02
      1000  5.000000E+02
      1001  5.000000E+02
      2001  5.000000E+02
      3001  5.000000E+02
      4001  5.000000E+02
      5000  5.000000E+02
      5001  5.000000E+02
