    1C
    1UUSER                                                              
    1UDATE              24.november.2019                                
    1UTIME              19:37:49                                        
    1UHOST                                                              
    1UPGM               CalculiX                                        
    1UVERSION           Version 2.16                             
    1UCOMPILETIME       So 24. Nov 18:30:58 CET 2019                    
    1UDIR                                                               
    1UDBN                                                               
    1UMAT    1EL                                                        
    2C                            24                                     1
 -1        10 0.00000E+00 0.00000E+00 5.00000E-03
 -1        12 0.00000E+00 0.00000E+00-5.00000E-03
 -1        13 0.00000E+00 0.00000E+00 5.00000E-03
 -1        15 0.00000E+00 0.00000E+00-5.00000E-03
 -1        16 0.00000E+00 0.00000E+00 5.00000E-03
 -1        18 0.00000E+00 0.00000E+00-5.00000E-03
 -1        19 0.00000E+00 0.00000E+00 5.00000E-03
 -1        21 0.00000E+00 0.00000E+00-5.00000E-03
 -1        24 1.00000E+00 0.00000E+00 5.00000E-03
 -1        26 1.00000E+00 0.00000E+00-5.00000E-03
 -1        27 1.00000E+00 0.00000E+00 5.00000E-03
 -1        29 1.00000E+00 0.00000E+00-5.00000E-03
 -1        32 0.00000E+00 1.00000E+00 5.00000E-03
 -1        34 0.00000E+00 1.00000E+00-5.00000E-03
 -1        35 0.00000E+00 1.00000E+00 5.00000E-03
 -1        37 0.00000E+00 1.00000E+00-5.00000E-03
 -1        40-1.00000E+00 0.00000E+00 5.00000E-03
 -1        42-1.00000E+00 0.00000E+00-5.00000E-03
 -1        43-1.00000E+00 0.00000E+00 5.00000E-03
 -1        45-1.00000E+00 0.00000E+00-5.00000E-03
 -1        48 0.00000E+00-1.00000E+00 5.00000E-03
 -1        50 0.00000E+00-1.00000E+00-5.00000E-03
 -1        51 0.00000E+00-1.00000E+00 5.00000E-03
 -1        53 0.00000E+00-1.00000E+00-5.00000E-03
 -3
    3C                             4                                     1
 -1         1    2    0    1
 -2        10        24        48        12        26        50
 -1         3    2    0    1
 -2        13        51        40        15        53        42
 -1         5    2    0    1
 -2        16        43        32        18        45        34
 -1         7    2    0    1
 -2        19        35        27        21        37        29
 -3
    1PSTEP                         1           1           1          
  100CL  101 1.000000000          24                     0    1           1
 -4  DISP        4    1
 -5  D1          1    2    1    0
 -5  D2          1    2    2    0
 -5  D3          1    2    3    0
 -5  ALL         1    2    0    0    1ALL
 -1        10-1.10880E-07 1.10656E-07-2.21536E-05
 -1        12 1.10880E-07-1.10656E-07-2.21536E-05
 -1        13 1.08080E-07 1.13456E-07-2.21536E-05
 -1        15-1.08080E-07-1.13456E-07-2.21536E-05
 -1        16 1.11459E-07-1.10077E-07-2.21536E-05
 -1        18-1.11459E-07 1.10077E-07-2.21536E-05
 -1        19-1.07829E-07-1.13707E-07-2.21536E-05
 -1        21 1.07829E-07 1.13707E-07-2.21536E-05
 -1        24-1.10880E-07 1.10992E-07-3.50760E-12
 -1        26 1.10880E-07-1.10992E-07 3.50760E-12
 -1        27-1.07829E-07-1.04890E-07-3.37297E-12
 -1        29 1.07829E-07 1.04890E-07 3.37297E-12
 -1        32 1.09386E-07-1.10077E-07-3.47224E-12
 -1        34-1.09386E-07 1.10077E-07 3.47224E-12
 -1        35-1.16647E-07-1.13707E-07-3.63267E-12
 -1        37 1.16647E-07 1.13707E-07 3.63267E-12
 -1        40 1.08080E-07 1.05393E-07-3.38322E-12
 -1        42-1.08080E-07-1.05393E-07 3.38322E-12
 -1        43 1.11459E-07-1.12150E-07-3.53341E-12
 -1        45-1.11459E-07 1.12150E-07 3.53341E-12
 -1        48-1.10544E-07 1.10656E-07-3.49805E-12
 -1        50 1.10544E-07-1.10656E-07 3.49805E-12
 -1        51 1.16144E-07 1.13456E-07-3.62242E-12
 -1        53-1.16144E-07-1.13456E-07 3.62242E-12
 -3
    1PSTEP                         2           1           1          
  100CL  101 1.000000000          24                     0    1           1
 -4  STRESS      6    1
 -5  SXX         1    4    1    1
 -5  SYY         1    4    2    2
 -5  SZZ         1    4    3    3
 -5  SXY         1    4    1    2
 -5  SYZ         1    4    2    3
 -5  SZX         1    4    3    1
 -1        10 7.36846E-05 7.36846E-05 1.56547E-07-3.96402E-05-2.34309E-09 2.66407E-09
 -1        12 7.36846E-05 7.36846E-05 1.56547E-07-3.96402E-05-2.66387E-09 2.34290E-09
 -1        13 7.36848E-05 7.36848E-05 1.56910E-07 3.96402E-05-6.05776E-09 1.05044E-09
 -1        15 7.36848E-05 7.36848E-05 1.56910E-07 3.96402E-05 1.05081E-09-6.05739E-09
 -1        16 7.36846E-05 7.36846E-05 1.56571E-07-3.96402E-05 1.58023E-09-3.42720E-09
 -1        18 7.36846E-05 7.36846E-05 1.56571E-07-3.96402E-05 3.42674E-09-1.57977E-09
 -1        19 7.36848E-05 7.36848E-05 1.56994E-07 3.96402E-05 6.44671E-09-1.43963E-09
 -1        21 7.36848E-05 7.36848E-05 1.56994E-07 3.96402E-05-1.43977E-09 6.44658E-09
 -1        24 7.36846E-05 7.36846E-05 1.56547E-07-3.96402E-05-2.66387E-09 2.34290E-09
 -1        26 7.36846E-05 7.36846E-05 1.56547E-07-3.96402E-05-2.34309E-09 2.66407E-09
 -1        27 7.36848E-05 7.36848E-05 1.56994E-07 3.96402E-05 6.44671E-09-1.43963E-09
 -1        29 7.36848E-05 7.36848E-05 1.56994E-07 3.96402E-05-1.43977E-09 6.44658E-09
 -1        32 7.36846E-05 7.36846E-05 1.56571E-07-3.96402E-05 1.58023E-09-3.42720E-09
 -1        34 7.36846E-05 7.36846E-05 1.56571E-07-3.96402E-05 3.42674E-09-1.57977E-09
 -1        35 7.36848E-05 7.36848E-05 1.56994E-07 3.96402E-05-1.43977E-09 6.44658E-09
 -1        37 7.36848E-05 7.36848E-05 1.56994E-07 3.96402E-05 6.44671E-09-1.43963E-09
 -1        40 7.36848E-05 7.36848E-05 1.56910E-07 3.96402E-05-6.05776E-09 1.05044E-09
 -1        42 7.36848E-05 7.36848E-05 1.56910E-07 3.96402E-05 1.05081E-09-6.05739E-09
 -1        43 7.36846E-05 7.36846E-05 1.56571E-07-3.96402E-05 3.42674E-09-1.57977E-09
 -1        45 7.36846E-05 7.36846E-05 1.56571E-07-3.96402E-05 1.58023E-09-3.42720E-09
 -1        48 7.36846E-05 7.36846E-05 1.56547E-07-3.96402E-05-2.34309E-09 2.66407E-09
 -1        50 7.36846E-05 7.36846E-05 1.56547E-07-3.96402E-05-2.66387E-09 2.34290E-09
 -1        51 7.36848E-05 7.36848E-05 1.56910E-07 3.96402E-05 1.05081E-09-6.05739E-09
 -1        53 7.36848E-05 7.36848E-05 1.56910E-07 3.96402E-05-6.05776E-09 1.05044E-09
 -3
    1PSTEP                         3           1           1          
  100CL  101 1.000000000          24                     0    1           1
 -4  FORC        4    1
 -5  F1          1    2    1    0
 -5  F2          1    2    2    0
 -5  F3          1    2    3    0
 -5  ALL         1    2    0    0    1ALL
 -1        10-2.83313E-07 2.83313E-07 2.60787E-08
 -1        12-2.83311E-07 2.83311E-07-2.61037E-08
 -1        13 2.83314E-07 2.83314E-07 2.61391E-08
 -1        15 2.83311E-07 2.83311E-07-2.61641E-08
 -1        16 2.83313E-07-2.83313E-07 2.60826E-08
 -1        18 2.83311E-07-2.83311E-07-2.61077E-08
 -1        19-2.83314E-07-2.83314E-07 2.61530E-08
 -1        21-2.83311E-07-2.83311E-07-2.61781E-08
 -1        24 1.84210E-07-9.90993E-08 2.60976E-08
 -1        26 1.84213E-07-9.91017E-08-2.60851E-08
 -1        27 1.84211E-07 9.90994E-08 2.61674E-08
 -1        29 1.84213E-07 9.91017E-08-2.61549E-08
 -1        32-9.90993E-08 1.84210E-07 2.61004E-08
 -1        34-9.91017E-08 1.84213E-07-2.60879E-08
 -1        35 9.90994E-08 1.84211E-07 2.61762E-08
 -1        37 9.91017E-08 1.84213E-07-2.61637E-08
 -1        40-1.84211E-07-9.90993E-08 2.61539E-08
 -1        42-1.84213E-07-9.91017E-08-2.61413E-08
 -1        43-1.84210E-07 9.90993E-08 2.61024E-08
 -1        45-1.84213E-07 9.91017E-08-2.60899E-08
 -1        48 9.90993E-08-1.84210E-07 2.60973E-08
 -1        50 9.91017E-08-1.84213E-07-2.60847E-08
 -1        51-9.90993E-08-1.84211E-07 2.61618E-08
 -1        53-9.91017E-08-1.84213E-07-2.61493E-08
 -3
 9999
