    1C
    1UUSER                                                              
    1UDATE              24.november.2019                                
    1UTIME              19:38:01                                        
    1UHOST                                                              
    1UPGM               CalculiX                                        
    1UVERSION           Version 2.16                             
    1UCOMPILETIME       So 24. Nov 18:30:58 CET 2019                    
    1UDIR                                                               
    1UDBN                                                               
    1UMAT    1EL                                                        
    2C                            36                                     1
 -1        10 0.00000E+00 0.00000E+00-5.00000E-01
 -1        11 0.00000E+00 0.00000E+00 0.00000E+00
 -1        12 0.00000E+00 0.00000E+00 5.00000E-01
 -1        13 1.00000E+00 0.00000E+00-5.00000E-01
 -1        14 1.00000E+00 0.00000E+00 0.00000E+00
 -1        15 1.00000E+00 0.00000E+00 5.00000E-01
 -1        16 1.00000E+00 1.00000E+00-5.00000E-01
 -1        17 1.00000E+00 1.00000E+00 0.00000E+00
 -1        18 1.00000E+00 1.00000E+00 5.00000E-01
 -1        19 9.64645E-01 9.64645E-01 5.00000E-02
 -1        20 1.03536E+00 1.03536E+00 5.00000E-02
 -1        21 1.03536E+00 1.03536E+00-5.00000E-02
 -1        22 9.64645E-01 9.64645E-01-5.00000E-02
 -1        28 0.00000E+00 1.00000E+00-5.00000E-01
 -1        29 0.00000E+00 1.00000E+00 0.00000E+00
 -1        30 0.00000E+00 1.00000E+00 5.00000E-01
 -1        31 3.53553E-02 9.64645E-01-5.00000E-02
 -1        32-3.53553E-02 1.03536E+00-5.00000E-02
 -1        33-3.53553E-02 1.03536E+00 5.00000E-02
 -1        34 3.53553E-02 9.64645E-01 5.00000E-02
 -1        40 5.00000E-01 0.00000E+00-5.00000E-01
 -1        42 5.00000E-01 0.00000E+00 5.00000E-01
 -1        43 1.00000E+00 5.00000E-01-5.00000E-01
 -1        45 1.00000E+00 5.00000E-01 5.00000E-01
 -1        46 5.00000E-01 1.00000E+00-5.00000E-01
 -1        48 5.00000E-01 1.00000E+00 5.00000E-01
 -1        49 0.00000E+00 5.00000E-01-5.00000E-01
 -1        51 0.00000E+00 5.00000E-01 5.00000E-01
 -1        52 4.64645E-01 1.46464E+00 5.00000E-02
 -1        53 5.35355E-01 1.53536E+00 5.00000E-02
 -1        54 5.35355E-01 1.53536E+00-5.00000E-02
 -1        55 4.64645E-01 1.46464E+00-5.00000E-02
 -1        61 5.35355E-01 1.46464E+00-5.00000E-02
 -1        62 4.64645E-01 1.53536E+00-5.00000E-02
 -1        63 4.64645E-01 1.53536E+00 5.00000E-02
 -1        64 5.35355E-01 1.46464E+00 5.00000E-02
 -3
    3C                             3                                     1
 -1         1    4    0    1
 -2        10        13        16        28        12        15        18        30        40        43
 -2        46        49        11        14        17        29        42        45        48        51
 -1         3    1    0    1
 -2        19        52        53        20        22        55        54        21
 -1         4    1    0    1
 -2        31        61        62        32        34        64        63        33
 -3
    1PSTEP                         1           1           1          
  100CL  101 1.000000000          36                     0    1           1
 -4  DISP        4    1
 -5  D1          1    2    1    0
 -5  D2          1    2    2    0
 -5  D3          1    2    3    0
 -5  ALL         1    2    0    0    1ALL
 -1        10 0.00000E+00 0.00000E+00 0.00000E+00
 -1        11 0.00000E+00 0.00000E+00 0.00000E+00
 -1        12 0.00000E+00 0.00000E+00 0.00000E+00
 -1        13-1.66582E-06 0.00000E+00 0.00000E+00
 -1        14-1.66582E-06 0.00000E+00 0.00000E+00
 -1        15-1.66582E-06 0.00000E+00 0.00000E+00
 -1        16-1.13417E-05 1.15118E-05 0.00000E+00
 -1        17-1.13417E-05 1.15118E-05 0.00000E+00
 -1        18-1.13417E-05 1.15118E-05 0.00000E+00
 -1        19-2.04181E-05 2.77311E-05-5.05076E-06
 -1        20-2.26529E-06-4.70743E-06-5.05076E-06
 -1        21-2.26529E-06-4.70743E-06 5.05076E-06
 -1        22-2.04181E-05 2.77311E-05 5.05076E-06
 -1        28 9.67588E-06 1.15118E-05 0.00000E+00
 -1        29 9.67588E-06 1.15118E-05 0.00000E+00
 -1        30 9.67588E-06 1.15118E-05 0.00000E+00
 -1        31 1.87523E-05 2.77311E-05 5.05076E-06
 -1        32 5.99463E-07-4.70743E-06 5.05076E-06
 -1        33 5.99463E-07-4.70743E-06-5.05076E-06
 -1        34 1.87523E-05 2.77311E-05-5.05076E-06
 -1        40-8.32911E-07 0.00000E+00 0.00000E+00
 -1        42-8.32911E-07 0.00000E+00 0.00000E+00
 -1        43-1.01534E-06 4.71922E-06 0.00000E+00
 -1        45-1.01534E-06 4.71922E-06 0.00000E+00
 -1        46-8.32911E-07 2.13693E-06 0.00000E+00
 -1        48-8.32911E-07 2.13693E-06 0.00000E+00
 -1        49-6.50479E-07 4.71922E-06 0.00000E+00
 -1        51-6.50479E-07 4.71922E-06 0.00000E+00
 -1        52-9.90933E-06 3.74957E-04-5.05076E-06
 -1        53 8.24351E-06 3.42519E-04-5.05076E-06
 -1        54 8.24351E-06 3.42519E-04 5.05076E-06
 -1        55-9.90933E-06 3.74957E-04 5.05076E-06
 -1        61 8.24351E-06 3.74957E-04 5.05076E-06
 -1        62-9.90933E-06 3.42519E-04 5.05076E-06
 -1        63-9.90933E-06 3.42519E-04-5.05076E-06
 -1        64 8.24351E-06 3.74957E-04-5.05076E-06
 -3
    1PSTEP                         2           1           1          
  100CL  101 1.000000000          36                     0    1           1
 -4  STRESS      6    1
 -5  SXX         1    4    1    1
 -5  SYY         1    4    2    2
 -5  SZZ         1    4    3    3
 -5  SXY         1    4    1    2
 -5  SYZ         1    4    2    3
 -5  SZX         1    4    3    1
 -1        10 4.21423E-01 1.88018E+00 6.90480E-01-9.91674E-01-4.94472E-16-3.15191E-16
 -1        11 4.21366E-01 1.88027E+00 6.90492E-01-9.91674E-01 2.35487E-16 8.38913E-17
 -1        12 4.21423E-01 1.88018E+00 6.90480E-01-9.91674E-01 5.24786E-16 3.73285E-16
 -1        13 4.21423E-01 1.88018E+00 6.90480E-01 9.91674E-01-3.45458E-16-1.48828E-16
 -1        14 4.21366E-01 1.88027E+00 6.90492E-01 9.91674E-01 1.09406E-16-1.35827E-16
 -1        15 4.21423E-01 1.88018E+00 6.90480E-01 9.91674E-01 4.99758E-16-3.74715E-17
 -1        16-4.04439E+00 1.88018E+00-6.49263E-01 4.74124E-01-3.13048E-15 2.91394E-15
 -1        17-4.04444E+00 1.88027E+00-6.49251E-01 4.74124E-01-3.86796E-17-1.98555E-16
 -1        18-4.04439E+00 1.88018E+00-6.49263E-01 4.74124E-01 3.32394E-15-3.50507E-15
 -1        19 3.53539E+01 3.53539E+01 1.78923E-13-3.53539E+01-4.05825E-13 1.00546E-13
 -1        20 3.53539E+01 3.53539E+01 5.23498E-13-3.53539E+01 3.71008E-13 1.13007E-13
 -1        21 3.53539E+01 3.53539E+01 1.44333E-13-3.53539E+01 3.44355E-13-5.21551E-14
 -1        22 3.53539E+01 3.53539E+01-7.45610E-13-3.53539E+01-5.58399E-13-3.57338E-14
 -1        28-4.04439E+00 1.88018E+00-6.49263E-01-4.74124E-01 1.71514E-18-7.50762E-16
 -1        29-4.04444E+00 1.88027E+00-6.49251E-01-4.74124E-01 5.44271E-18-9.06318E-17
 -1        30-4.04439E+00 1.88018E+00-6.49263E-01-4.74124E-01-1.15324E-15 9.33161E-16
 -1        31 3.53539E+01 3.53539E+01-5.35941E-13 3.53539E+01-4.17476E-13-2.72833E-13
 -1        32 3.53539E+01 3.53539E+01 6.17520E-13 3.53539E+01 3.41841E-14 3.12326E-13
 -1        33 3.53539E+01 3.53539E+01 4.94910E-13 3.53539E+01 3.23696E-13-3.79723E-14
 -1        34 3.53539E+01 3.53539E+01-4.39193E-13 3.53539E+01-6.51036E-14-5.46781E-13
 -1        40-7.14450E-01-7.69963E-01-4.45324E-01-3.73312E-15-2.28014E-17 1.02939E-16
 -1        42-7.14450E-01-7.69963E-01-4.45324E-01-3.83027E-15-1.52974E-16-2.11001E-16
 -1        43 1.29155E+00 3.21017E+00 1.35052E+00 7.32899E-01-1.08630E-15-1.43070E-16
 -1        45 1.29155E+00 3.21017E+00 1.35052E+00 7.32899E-01 1.13038E-15 2.30269E-16
 -1        46-5.18026E+00-7.69963E-01-1.78507E+00-3.94129E-15-9.56158E-16 5.97355E-16
 -1        48-5.18026E+00-7.69963E-01-1.78507E+00-4.05231E-15 7.38062E-16-5.71783E-16
 -1        49 1.29155E+00 3.21017E+00 1.35052E+00-7.32899E-01-4.19865E-16 1.38838E-16
 -1        51 1.29155E+00 3.21017E+00 1.35052E+00-7.32899E-01-4.83684E-16-1.71935E-16
 -1        52 3.53539E+01 3.53539E+01-4.12554E-13-3.53539E+01 1.11943E-12-4.16080E-13
 -1        53 3.53539E+01 3.53539E+01-1.30250E-12-3.53539E+01-8.90682E-13 6.89904E-13
 -1        54 3.53539E+01 3.53539E+01 2.98915E-13-3.53539E+01-8.60029E-13 7.70357E-13
 -1        55 3.53539E+01 3.53539E+01 5.51189E-13-3.53539E+01 1.30730E-12-2.99191E-13
 -1        61 3.53539E+01 3.53539E+01 6.10935E-14 3.53539E+01-6.26502E-14 4.31102E-13
 -1        62 3.53539E+01 3.53539E+01-1.16838E-12 3.53539E+01-7.89842E-13-4.76449E-13
 -1        63 3.53539E+01 3.53539E+01-1.25282E-12 3.53539E+01-1.06904E-12-3.06412E-13
 -1        64 3.53539E+01 3.53539E+01 6.20595E-13 3.53539E+01-1.98652E-13 6.76513E-13
 -3
    1PSTEP                         3           1           1          
  100CL  101 1.000000000          36                     0    1           1
 -4  FORC        4    1
 -5  F1          1    2    1    0
 -5  F2          1    2    2    0
 -5  F3          1    2    3    0
 -5  ALL         1    2    0    0    1ALL
 -1        10 5.10466E-16 1.60965E-01-1.79458E-03
 -1        11 2.06114E-15-3.33333E-01-1.51788E-18
 -1        12 4.91318E-16 1.60965E-01 1.79458E-03
 -1        13 8.88610E-17 1.60965E-01-1.79458E-03
 -1        14 1.18829E-16-3.33333E-01-1.73472E-18
 -1        15 9.54534E-17 1.60965E-01 1.79458E-03
 -1        16-8.33333E-02 8.33333E-02 3.54203E-02
 -1        17-3.33333E-01 3.33333E-01-6.93889E-18
 -1        18-8.33333E-02 8.33333E-02-3.54203E-02
 -1        19 1.25000E-01-1.25000E-01-3.27704E-15
 -1        20 1.25000E-01-1.25000E-01 1.54166E-15
 -1        21 1.25000E-01-1.25000E-01 1.78949E-15
 -1        22 1.25000E-01-1.25000E-01 3.37891E-16
 -1        28 8.33333E-02 8.33333E-02 3.54203E-02
 -1        29 3.33333E-01 3.33333E-01 4.16334E-17
 -1        30 8.33333E-02 8.33333E-02-3.54203E-02
 -1        31-1.25000E-01-1.25000E-01 5.38676E-15
 -1        32-1.25000E-01-1.25000E-01 2.17876E-17
 -1        33-1.25000E-01-1.25000E-01-2.04484E-15
 -1        34-1.25000E-01-1.25000E-01-1.18451E-15
 -1        40-1.17278E-16-4.88597E-01-7.39496E-02
 -1        42-1.01568E-16-4.88597E-01 7.39496E-02
 -1        43 1.78681E-17 6.52429E-16-1.09106E-01
 -1        45 1.68264E-17 5.67082E-16 1.09106E-01
 -1        46-2.94653E-16 1.84487E-16 7.49101E-02
 -1        48-2.75475E-16 1.28197E-16-7.49101E-02
 -1        49 1.14091E-16 3.82938E-16-1.09106E-01
 -1        51 1.56472E-16 3.44996E-16 1.09106E-01
 -1        52-1.25000E-01 1.25000E-01-4.35798E-15
 -1        53-1.25000E-01 1.25000E-01-6.58050E-16
 -1        54-1.25000E-01 1.25000E-01 5.43857E-15
 -1        55-1.25000E-01 1.25000E-01-8.14559E-16
 -1        61 1.25000E-01 1.25000E-01 6.97871E-15
 -1        62 1.25000E-01 1.25000E-01 1.77497E-15
 -1        63 1.25000E-01 1.25000E-01-1.24048E-14
 -1        64 1.25000E-01 1.25000E-01 1.47192E-15
 -3
 9999
