
 displacements (vx,vy,vz) for set NALL and time  0.1000000E+01

         2  8.952789E+01  0.000000E+00  0.000000E+00
         3  8.952789E+01  1.000000E+05  0.000000E+00
         4  8.952789E+01  0.000000E+00  0.000000E+00
         5  8.952789E+01  1.338622E+05  0.000000E+00
         6  8.952789E+01  0.000000E+00  0.000000E+00
         7  8.952789E+01  1.289965E+05  0.000000E+00
         8  8.952789E+01  0.000000E+00  0.000000E+00
         9  8.952789E+01  1.285905E+05  0.000000E+00
        10  8.952789E+01  0.000000E+00  0.000000E+00
        11  8.952789E+01  1.584081E+05  0.000000E+00
        12  8.952789E+01  0.000000E+00  0.000000E+00
        13  8.952789E+01  1.604033E+05  0.000000E+00
        14  8.952789E+01  0.000000E+00  0.000000E+00
        15  8.952789E+01  1.945278E+05  0.000000E+00
        16  8.952789E+01  0.000000E+00  0.000000E+00
        17  8.952789E+01  1.775546E+05  0.000000E+00
        18  8.952789E+01  0.000000E+00  0.000000E+00
        19  8.952789E+01  1.836118E+05  0.000000E+00
        20  8.952789E+01  0.000000E+00  0.000000E+00
        21  8.952789E+01  1.579437E+05  0.000000E+00
        22  8.952789E+01  0.000000E+00  0.000000E+00
        23  8.952789E+01  1.617235E+05  0.000000E+00
        24  8.952789E+01  0.000000E+00  0.000000E+00
        25  8.952789E+01  1.000000E+05  0.000000E+00
        26  8.952789E+01  0.000000E+00  0.000000E+00
