
 displacements (vx,vy,vz) for set NALL and time  0.1000000E+01

         1  1.000000E-01  1.000000E+00  7.000000E+02
         2  7.500000E-02  9.919900E-01  7.000000E+02
         3  2.500000E-02  9.883486E-01  7.000000E+02
         4  1.000000E-01  0.000000E+00  0.000000E+00
         5  7.500000E-02  0.000000E+00  6.166672E-01
         6  2.500000E-02  0.000000E+00  3.083336E-01
         7  7.500000E-02  0.000000E+00  0.000000E+00
         8  2.500000E-02  0.000000E+00  0.000000E+00
