
 displacements (vx,vy,vz) for set NALL and time  0.1000000E+01

         2  8.956325E+01  0.000000E+00  0.000000E+00
         3  8.956325E+01  1.000000E+05  0.000000E+00
         4  8.956325E+01  0.000000E+00  0.000000E+00
         5  8.956325E+01  1.338553E+05  0.000000E+00
         6  8.956325E+01  0.000000E+00  0.000000E+00
         7  8.956325E+01  1.289857E+05  0.000000E+00
         8  8.956325E+01  0.000000E+00  0.000000E+00
         9  8.956325E+01  1.285029E+05  0.000000E+00
        10  8.956325E+01  0.000000E+00  0.000000E+00
        11  8.956325E+01  1.583167E+05  0.000000E+00
        12  8.956325E+01  0.000000E+00  0.000000E+00
        13  8.956325E+01  1.603235E+05  0.000000E+00
        14  8.956325E+01  0.000000E+00  0.000000E+00
        15  8.956325E+01  1.944475E+05  0.000000E+00
        16  8.956325E+01  0.000000E+00  0.000000E+00
        17  8.956325E+01  1.775894E+05  0.000000E+00
        18  8.956325E+01  0.000000E+00  0.000000E+00
        19  8.956325E+01  1.836376E+05  0.000000E+00
        20  8.956325E+01  0.000000E+00  0.000000E+00
        21  8.956325E+01  1.579492E+05  0.000000E+00
        22  8.956325E+01  0.000000E+00  0.000000E+00
        23  8.956325E+01  1.617235E+05  0.000000E+00
        24  8.956325E+01  0.000000E+00  0.000000E+00
        25  8.956325E+01  1.000000E+05  0.000000E+00
        26  8.956325E+01  0.000000E+00  0.000000E+00
