
 displacements (vx,vy,vz) for set NALL and time  0.1000000E+01

         1  1.000000E-01  1.000000E+00  7.000000E+02
         2  3.750000E-02  9.919900E-01  7.000000E+02
         3  1.250000E-02  9.912639E-01  7.000000E+02
         4  1.000000E-01  0.000000E+00  0.000000E+00
         5  3.750000E-02  0.000000E+00  4.446976E-01
         6  1.250000E-02  0.000000E+00  2.223488E-01
         7  3.750000E-02  0.000000E+00  0.000000E+00
         8  1.250000E-02  0.000000E+00  0.000000E+00
         9  5.000000E-02  0.000000E+00  4.823113E-01
        10  5.000000E-02  9.900000E-01  7.000000E+02
        11  5.000000E-02  0.000000E+00  0.000000E+00
        12  5.000000E-02  0.000000E+00  0.000000E+00
