    1C
    1UUSER                                                              
    1UDATE              24.november.2019                                
    1UTIME              19:38:05                                        
    1UHOST                                                              
    1UPGM               CalculiX                                        
    1UVERSION           Version 2.16                             
    1UCOMPILETIME       So 24. Nov 18:30:58 CET 2019                    
    1UDIR                                                               
    1UDBN                                                               
    1UMAT    1EL                                                        
    2C                             8                                     1
 -1         5 1.00000E+00 0.00000E+00-5.00000E-03
 -1         7 1.00000E+00 0.00000E+00 5.00000E-03
 -1         8 0.00000E+00 0.00000E+00-5.00000E-03
 -1        10 0.00000E+00 0.00000E+00 5.00000E-03
 -1        11 0.00000E+00 1.00000E+00-5.00000E-03
 -1        13 0.00000E+00 1.00000E+00 5.00000E-03
 -1        14 1.00000E+00 1.00000E+00-5.00000E-03
 -1        16 1.00000E+00 1.00000E+00 5.00000E-03
 -3
    3C                             1                                     1
 -1         1    1    0    1
 -2         5        14        11         8         7        16        13        10
 -3
    1PSTEP                         1           1           1          
  100CL  101 1.000000000           8                     0    1           1
 -4  DISP        4    1
 -5  D1          1    2    1    0
 -5  D2          1    2    2    0
 -5  D3          1    2    3    0
 -5  ALL         1    2    0    0    1ALL
 -1         5 0.00000E+00 0.00000E+00 0.00000E+00
 -1         7 0.00000E+00 0.00000E+00 0.00000E+00
 -1         8 1.85714E-04 0.00000E+00 0.00000E+00
 -1        10 1.85714E-04 0.00000E+00 0.00000E+00
 -1        11 1.85714E-04 4.33333E-04 0.00000E+00
 -1        13 1.85714E-04 4.33333E-04 0.00000E+00
 -1        14 1.25727E-16 4.33333E-04 0.00000E+00
 -1        16 1.25727E-16 4.33333E-04 0.00000E+00
 -3
    1PSTEP                         2           1           1          
  100CL  101 1.000000000           8                     0    1           1
 -4  STRESS      6    1
 -5  SXX         1    4    1    1
 -5  SYY         1    4    2    2
 -5  SZZ         1    4    3    3
 -5  SXY         1    4    1    2
 -5  SYZ         1    4    2    3
 -5  SZX         1    4    3    1
 -1         5-3.12260E-11 9.99960E+01 2.99988E+01 1.01538E-11-1.65589E-13-1.62546E-13
 -1         7-3.12321E-11 9.99960E+01 2.99988E+01 1.01523E-11-1.65589E-13-3.41685E-14
 -1         8-1.43057E-11 9.99960E+01 2.99988E+01-2.10502E-12-8.56871E-14 5.98111E-14
 -1        10-1.43040E-11 9.99960E+01 2.99988E+01-2.10455E-12-8.56871E-14 2.54129E-14
 -1        11 2.85855E-11 9.99960E+01 2.99988E+01-1.33868E-11 4.10776E-13-7.96699E-14
 -1        13 2.85793E-11 9.99960E+01 2.99988E+01-1.33899E-11 4.10776E-13-5.63749E-14
 -1        14 1.16574E-11 9.99960E+01 2.99988E+01-1.13241E-12 2.78333E-13 7.09143E-14
 -1        16 1.16803E-11 9.99960E+01 2.99988E+01-1.13193E-12 2.78333E-13-1.60253E-14
 -3
    1PSTEP                         3           1           1          
  100CL  101 1.000000000           8                     0    1           1
 -4  FORC        4    1
 -5  F1          1    2    1    0
 -5  F2          1    2    2    0
 -5  F3          1    2    3    0
 -5  ALL         1    2    0    0    1ALL
 -1         5-1.33101E-14-2.50000E-01-7.50000E+00
 -1         7-3.11611E-14-2.50000E-01 7.50000E+00
 -1         8 3.40729E-14-2.50000E-01-7.50000E+00
 -1        10 2.65797E-14-2.50000E-01 7.50000E+00
 -1        11-1.73218E-14 2.50000E-01-7.50000E+00
 -1        13-3.01236E-14 2.50000E-01 7.50000E+00
 -1        14 2.06408E-14 2.50000E-01-7.50000E+00
 -1        16 1.06232E-14 2.50000E-01 7.50000E+00
 -3
 9999
