    1C
    1UUSER                                                              
    1UDATE              24.november.2019                                
    1UTIME              19:38:05                                        
    1UHOST                                                              
    1UPGM               CalculiX                                        
    1UVERSION           Version 2.16                             
    1UCOMPILETIME       So 24. Nov 18:30:58 CET 2019                    
    1UDIR                                                               
    1UDBN                                                               
    1UMAT    1EL                                                        
    2C                            18                                     1
 -1        22-7.45058E-09-7.45058E-09-5.00000E-03
 -1        24-7.45058E-09-7.45058E-09 5.00000E-03
 -1        25 5.00000E-01-7.45058E-09-5.00000E-03
 -1        27 5.00000E-01-7.45058E-09 5.00000E-03
 -1        28 5.00000E-01 5.00000E-01-5.00000E-03
 -1        30 5.00000E-01 5.00000E-01 5.00000E-03
 -1        31-7.45058E-09 5.00000E-01-5.00000E-03
 -1        33-7.45058E-09 5.00000E-01 5.00000E-03
 -1        34 5.00000E-01 1.00000E+00-5.00000E-03
 -1        36 5.00000E-01 1.00000E+00 5.00000E-03
 -1        37-7.45058E-09 1.00000E+00-5.00000E-03
 -1        39-7.45058E-09 1.00000E+00 5.00000E-03
 -1        40 1.00000E+00-7.45058E-09-5.00000E-03
 -1        42 1.00000E+00-7.45058E-09 5.00000E-03
 -1        43 1.00000E+00 5.00000E-01-5.00000E-03
 -1        45 1.00000E+00 5.00000E-01 5.00000E-03
 -1        46 1.00000E+00 1.00000E+00-5.00000E-03
 -1        48 1.00000E+00 1.00000E+00 5.00000E-03
 -3
    3C                             4                                     1
 -1         1    1    0    1
 -2        22        25        28        31        24        27        30        33
 -1         2    1    0    1
 -2        31        28        34        37        33        30        36        39
 -1         3    1    0    1
 -2        25        40        43        28        27        42        45        30
 -1         4    1    0    1
 -2        28        43        46        34        30        45        48        36
 -3
    1PSTEP                         1           1           1          
  100CL  101 1.000000000          18                     0    1           1
 -4  DISP        4    1
 -5  D1          1    2    1    0
 -5  D2          1    2    2    0
 -5  D3          1    2    3    0
 -5  ALL         1    2    0    0    1ALL
 -1        22 0.00000E+00 7.14286E-05 7.14286E-07
 -1        24 0.00000E+00 7.14286E-05-7.14286E-07
 -1        25 2.38095E-04 7.14286E-05 7.14286E-07
 -1        27 2.38095E-04 7.14286E-05-7.14286E-07
 -1        28 2.38095E-04 1.66579E-18 7.14286E-07
 -1        30 2.38095E-04 1.66579E-18-7.14286E-07
 -1        31 0.00000E+00 0.00000E+00 7.14286E-07
 -1        33 0.00000E+00 0.00000E+00-7.14286E-07
 -1        34 2.38095E-04-7.14286E-05 7.14286E-07
 -1        36 2.38095E-04-7.14286E-05-7.14286E-07
 -1        37 0.00000E+00-7.14286E-05 7.14286E-07
 -1        39 0.00000E+00-7.14286E-05-7.14286E-07
 -1        40 4.76190E-04 7.14286E-05 7.14286E-07
 -1        42 4.76190E-04 7.14286E-05-7.14286E-07
 -1        43 4.76190E-04 3.90211E-17 7.14286E-07
 -1        45 4.76190E-04 3.90211E-17-7.14286E-07
 -1        46 4.76190E-04-7.14286E-05 7.14286E-07
 -1        48 4.76190E-04-7.14286E-05-7.14286E-07
 -3
    1PSTEP                         2           1           1          
  100CL  101 1.000000000          18                     0    1           1
 -4  STRESS      6    1
 -5  SXX         1    4    1    1
 -5  SYY         1    4    2    2
 -5  SZZ         1    4    3    3
 -5  SXY         1    4    1    2
 -5  SYZ         1    4    2    3
 -5  SZX         1    4    3    1
 -1        22 9.99960E+01 5.06739E-12 3.22101E-13 5.84375E-13-1.89547E-13-1.18349E-13
 -1        24 9.99960E+01 5.10551E-12 3.60228E-13 5.85046E-13-9.35897E-14-1.52827E-13
 -1        25 9.99960E+01 5.00973E-12 6.81431E-13-1.07130E-12-1.36157E-14 2.29089E-13
 -1        27 9.99960E+01 5.05010E-12 7.17306E-13-1.07110E-12 1.18622E-13 5.97808E-13
 -1        28 9.99960E+01 1.36972E-12 1.66372E-14-9.39836E-13-7.42928E-15-8.38352E-14
 -1        30 9.99960E+01 1.36255E-12 1.01821E-14-9.36451E-13 2.59112E-14-1.18715E-13
 -1        31 9.99960E+01-6.30778E-13-1.20341E-12 2.69754E-13 6.96568E-14-8.61830E-14
 -1        33 9.99960E+01-6.24625E-13-1.19808E-12 2.68805E-13 1.06838E-13 8.56374E-14
 -1        34 9.99960E+01 2.09767E-12-7.26663E-13 1.23272E-13-1.29976E-13 1.19154E-13
 -1        36 9.99960E+01 2.10015E-12-7.25014E-13 1.22707E-13-8.38863E-15-6.74647E-13
 -1        37 9.99960E+01-3.89064E-12 6.90028E-14 2.56646E-12 1.21520E-14 1.14756E-13
 -1        39 9.99960E+01-3.87383E-12 9.19675E-14 2.56326E-12-2.38122E-14 1.52357E-13
 -1        40 9.99960E+01 2.81862E-12-1.06528E-13-7.47060E-12-6.86961E-14-5.62842E-13
 -1        42 9.99960E+01 2.83994E-12-1.09825E-13-7.46544E-12-7.55069E-14-5.34410E-13
 -1        43 9.99960E+01-3.13210E-12 1.16493E-12-3.18572E-12-9.41754E-15 1.56725E-13
 -1        45 9.99960E+01-3.13803E-12 1.16515E-12-3.17067E-12-7.80823E-15 7.37087E-13
 -1        46 9.99960E+01-2.64951E-12-2.68461E-13 3.42807E-13-5.13557E-15-2.34378E-12
 -1        48 9.99960E+01-2.64786E-12-2.88128E-13 3.31340E-13 5.22045E-14 1.33050E-12
 -3
    1PSTEP                         3           1           1          
  100CL  101 1.000000000          18                     0    1           1
 -4  ERROR       1    1
 -5  STR(%)      1    1    0    0
 -1        22 6.00013E-12
 -1        24 6.00013E-12
 -1        25 1.25055E-11
 -1        27 1.25055E-11
 -1        28 1.25055E-11
 -1        30 1.25055E-11
 -1        31 6.00013E-12
 -1        33 6.00013E-12
 -1        34 5.61065E-12
 -1        36 5.61065E-12
 -1        37 5.61065E-12
 -1        39 5.61065E-12
 -1        40 1.25055E-11
 -1        42 1.25055E-11
 -1        43 1.25055E-11
 -1        45 1.25055E-11
 -1        46 1.36845E-12
 -1        48 1.36845E-12
 -3
    1PSTEP                         1           1           2          
  100CL  102 0.00000E+00          18                     3    2           1
 -4  NORM        4    1
 -5  NORMX       1    2	 1    0
 -5  NORMY       1    2	 2    0
 -5  NORMZ       1    2	 3    0
 -5  ALL         1    2	 0    0    1ALL
 -1        22 0.00000E+00-1.00000E+00 0.00000E+00
 -1        24 0.00000E+00-1.00000E+00 0.00000E+00
 -1        25 0.00000E+00-1.00000E+00 0.00000E+00
 -1        27 0.00000E+00-1.00000E+00 0.00000E+00
 -1        28 0.00000E+00 0.00000E+00 0.00000E+00
 -1        30 0.00000E+00 0.00000E+00 0.00000E+00
 -1        31 0.00000E+00 0.00000E+00 0.00000E+00
 -1        33 0.00000E+00 0.00000E+00 0.00000E+00
 -1        34 0.00000E+00 1.00000E+00 0.00000E+00
 -1        36 0.00000E+00 1.00000E+00 0.00000E+00
 -1        37 0.00000E+00 1.00000E+00 0.00000E+00
 -1        39 0.00000E+00 1.00000E+00 0.00000E+00
 -1        40 7.07107E-01-7.07107E-01 0.00000E+00
 -1        42 7.07107E-01-7.07107E-01 0.00000E+00
 -1        43 1.00000E+00 0.00000E+00 0.00000E+00
 -1        45 1.00000E+00 0.00000E+00 0.00000E+00
 -1        46 7.07107E-01 7.07107E-01 0.00000E+00
 -1        48 7.07107E-01 7.07107E-01 0.00000E+00
 -3
    1PSTEP                         2           1           2          
  100CL  103 0.00000E+00          18                     3    3           1
 -4  SENENER     2    1
 -5  DFDN        1    1    1    0
 -5  DFDNFIL     1    1    2    0
 -1        22 0.00000E+00 0.00000E+00
 -1        24 0.00000E+00 0.00000E+00
 -1        25-1.96438E-03-1.00000E+00
 -1        27-1.96438E-03-1.00000E+00
 -1        28 0.00000E+00 0.00000E+00
 -1        30 0.00000E+00 0.00000E+00
 -1        31 0.00000E+00 0.00000E+00
 -1        33 0.00000E+00 0.00000E+00
 -1        34-1.96438E-03-1.00000E+00
 -1        36-1.96438E-03-1.00000E+00
 -1        37 0.00000E+00 0.00000E+00
 -1        39 0.00000E+00 0.00000E+00
 -1        40 0.00000E+00 0.00000E+00
 -1        42 0.00000E+00 0.00000E+00
 -1        43 0.00000E+00 0.00000E+00
 -1        45 0.00000E+00 0.00000E+00
 -1        46 0.00000E+00 0.00000E+00
 -1        48 0.00000E+00 0.00000E+00
 -3
 9999
