    1C
    1UUSER                                                              
    1UDATE              24.november.2019                                
    1UTIME              19:38:05                                        
    1UHOST                                                              
    1UPGM               CalculiX                                        
    1UVERSION           Version 2.16                             
    1UCOMPILETIME       So 24. Nov 18:30:58 CET 2019                    
    1UDIR                                                               
    1UDBN                                                               
    1UMAT    1EL                                                        
    2C                            51                                     1
 -1        22-7.45058E-09-7.45058E-09-5.00000E-01
 -1        23-7.45058E-09-7.45058E-09 0.00000E+00
 -1        24-7.45058E-09-7.45058E-09 5.00000E-01
 -1        25 5.00000E-01-7.45058E-09-5.00000E-01
 -1        26 5.00000E-01-7.45058E-09 0.00000E+00
 -1        27 5.00000E-01-7.45058E-09 5.00000E-01
 -1        28 5.00000E-01 5.00000E-01-5.00000E-01
 -1        29 5.00000E-01 5.00000E-01 0.00000E+00
 -1        30 5.00000E-01 5.00000E-01 5.00000E-01
 -1        31-7.45058E-09 5.00000E-01-5.00000E-01
 -1        32-7.45058E-09 5.00000E-01 0.00000E+00
 -1        33-7.45058E-09 5.00000E-01 5.00000E-01
 -1        34 2.50000E-01-7.45058E-09-5.00000E-01
 -1        36 2.50000E-01-7.45058E-09 5.00000E-01
 -1        37 5.00000E-01 2.50000E-01-5.00000E-01
 -1        39 5.00000E-01 2.50000E-01 5.00000E-01
 -1        40 2.50000E-01 5.00000E-01-5.00000E-01
 -1        42 2.50000E-01 5.00000E-01 5.00000E-01
 -1        43-7.45058E-09 2.50000E-01-5.00000E-01
 -1        45-7.45058E-09 2.50000E-01 5.00000E-01
 -1        46 5.00000E-01 1.00000E+00-5.00000E-01
 -1        47 5.00000E-01 1.00000E+00 0.00000E+00
 -1        48 5.00000E-01 1.00000E+00 5.00000E-01
 -1        49-7.45058E-09 1.00000E+00-5.00000E-01
 -1        50-7.45058E-09 1.00000E+00 0.00000E+00
 -1        51-7.45058E-09 1.00000E+00 5.00000E-01
 -1        52 5.00000E-01 7.50000E-01-5.00000E-01
 -1        54 5.00000E-01 7.50000E-01 5.00000E-01
 -1        55 2.50000E-01 1.00000E+00-5.00000E-01
 -1        57 2.50000E-01 1.00000E+00 5.00000E-01
 -1        58-7.45058E-09 7.50000E-01-5.00000E-01
 -1        60-7.45058E-09 7.50000E-01 5.00000E-01
 -1        61 1.00000E+00-7.45058E-09-5.00000E-01
 -1        62 1.00000E+00-7.45058E-09 0.00000E+00
 -1        63 1.00000E+00-7.45058E-09 5.00000E-01
 -1        64 1.00000E+00 5.00000E-01-5.00000E-01
 -1        65 1.00000E+00 5.00000E-01 0.00000E+00
 -1        66 1.00000E+00 5.00000E-01 5.00000E-01
 -1        67 7.50000E-01-7.45058E-09-5.00000E-01
 -1        69 7.50000E-01-7.45058E-09 5.00000E-01
 -1        70 1.00000E+00 2.50000E-01-5.00000E-01
 -1        72 1.00000E+00 2.50000E-01 5.00000E-01
 -1        73 7.50000E-01 5.00000E-01-5.00000E-01
 -1        75 7.50000E-01 5.00000E-01 5.00000E-01
 -1        76 1.00000E+00 1.00000E+00-5.00000E-01
 -1        77 1.00000E+00 1.00000E+00 0.00000E+00
 -1        78 1.00000E+00 1.00000E+00 5.00000E-01
 -1        79 1.00000E+00 7.50000E-01-5.00000E-01
 -1        81 1.00000E+00 7.50000E-01 5.00000E-01
 -1        82 7.50000E-01 1.00000E+00-5.00000E-01
 -1        84 7.50000E-01 1.00000E+00 5.00000E-01
 -3
    3C                             4                                     1
 -1         1    4    0    1
 -2        22        25        28        31        24        27        30        33        34        37
 -2        40        43        23        26        29        32        36        39        42        45
 -1         2    4    0    1
 -2        31        28        46        49        33        30        48        51        40        52
 -2        55        58        32        29        47        50        42        54        57        60
 -1         3    4    0    1
 -2        25        61        64        28        27        63        66        30        67        70
 -2        73        37        26        62        65        29        69        72        75        39
 -1         4    4    0    1
 -2        28        64        76        46        30        66        78        48        73        79
 -2        82        52        29        65        77        47        75        81        84        54
 -3
    1PSTEP                         1           1           1          
  100CL  101 1.000000000          51                     0    1           1
 -4  DISP        4    1
 -5  D1          1    2    1    0
 -5  D2          1    2    2    0
 -5  D3          1    2    3    0
 -5  ALL         1    2    0    0    1ALL
 -1        22 0.00000E+00 7.14286E-05 7.14286E-05
 -1        23 0.00000E+00 7.14286E-05 0.00000E+00
 -1        24 0.00000E+00 7.14286E-05-7.14286E-05
 -1        25 2.38095E-04 7.14286E-05 7.14286E-05
 -1        26 2.38095E-04 7.14286E-05 0.00000E+00
 -1        27 2.38095E-04 7.14286E-05-7.14286E-05
 -1        28 2.38095E-04 5.34901E-19 7.14286E-05
 -1        29 2.38095E-04 5.34901E-19 0.00000E+00
 -1        30 2.38095E-04 5.34901E-19-7.14286E-05
 -1        31 0.00000E+00 0.00000E+00 7.14286E-05
 -1        32 0.00000E+00 0.00000E+00 0.00000E+00
 -1        33 0.00000E+00 0.00000E+00-7.14286E-05
 -1        34 1.19048E-04 7.14286E-05 7.14286E-05
 -1        36 1.19048E-04 7.14286E-05-7.14286E-05
 -1        37 2.38095E-04 3.57143E-05 7.14286E-05
 -1        39 2.38095E-04 3.57143E-05-7.14286E-05
 -1        40 1.19048E-04 2.96258E-19 7.14286E-05
 -1        42 1.19048E-04 2.96258E-19-7.14286E-05
 -1        43 0.00000E+00 3.57143E-05 7.14286E-05
 -1        45 0.00000E+00 3.57143E-05-7.14286E-05
 -1        46 2.38095E-04-7.14286E-05 7.14286E-05
 -1        47 2.38095E-04-7.14286E-05 0.00000E+00
 -1        48 2.38095E-04-7.14286E-05-7.14286E-05
 -1        49 0.00000E+00-7.14286E-05 7.14286E-05
 -1        50 0.00000E+00-7.14286E-05 0.00000E+00
 -1        51 0.00000E+00-7.14286E-05-7.14286E-05
 -1        52 2.38095E-04-3.57143E-05 7.14286E-05
 -1        54 2.38095E-04-3.57143E-05-7.14286E-05
 -1        55 1.19048E-04-7.14286E-05 7.14286E-05
 -1        57 1.19048E-04-7.14286E-05-7.14286E-05
 -1        58 0.00000E+00-3.57143E-05 7.14286E-05
 -1        60 0.00000E+00-3.57143E-05-7.14286E-05
 -1        61 4.76190E-04 7.14286E-05 7.14286E-05
 -1        62 4.76190E-04 7.14286E-05 0.00000E+00
 -1        63 4.76190E-04 7.14286E-05-7.14286E-05
 -1        64 4.76190E-04 1.19770E-18 7.14286E-05
 -1        65 4.76190E-04 1.19770E-18 0.00000E+00
 -1        66 4.76190E-04 1.19770E-18-7.14286E-05
 -1        67 3.57143E-04 7.14286E-05 7.14286E-05
 -1        69 3.57143E-04 7.14286E-05-7.14286E-05
 -1        70 4.76190E-04 3.57143E-05 7.14286E-05
 -1        72 4.76190E-04 3.57143E-05-7.14286E-05
 -1        73 3.57143E-04 8.02582E-19 7.14286E-05
 -1        75 3.57143E-04 8.02582E-19-7.14286E-05
 -1        76 4.76190E-04-7.14286E-05 7.14286E-05
 -1        77 4.76190E-04-7.14286E-05 0.00000E+00
 -1        78 4.76190E-04-7.14286E-05-7.14286E-05
 -1        79 4.76190E-04-3.57143E-05 7.14286E-05
 -1        81 4.76190E-04-3.57143E-05-7.14286E-05
 -1        82 3.57143E-04-7.14286E-05 7.14286E-05
 -1        84 3.57143E-04-7.14286E-05-7.14286E-05
 -3
    1PSTEP                         2           1           1          
  100CL  101 1.000000000          51                     0    1           1
 -4  STRESS      6    1
 -5  SXX         1    4    1    1
 -5  SYY         1    4    2    2
 -5  SZZ         1    4    3    3
 -5  SXY         1    4    1    2
 -5  SYZ         1    4    2    3
 -5  SZX         1    4    3    1
 -1        22 9.99960E+01 1.57196E-13 2.64186E-13-4.28768E-14 2.39617E-14 9.39369E-14
 -1        23 1.00005E+02 5.16508E-14 1.30640E-13-4.27771E-14-6.84679E-15 3.20876E-15
 -1        24 9.99960E+01-5.84510E-14 2.58402E-14-4.32162E-14-4.55441E-15-3.87712E-14
 -1        25 9.99960E+01-1.50813E-13-2.03239E-13-1.51639E-13-1.60990E-14 2.71739E-15
 -1        26 1.00005E+02-5.97013E-14-3.68898E-14-1.39059E-13 1.35123E-14-4.58378E-15
 -1        27 9.99960E+01-1.51447E-14 3.46837E-14-1.02119E-13-1.42861E-14 2.98775E-14
 -1        28 9.99960E+01 1.54212E-13 4.00628E-14 9.12024E-14-4.40357E-14-4.87439E-14
 -1        29 1.00005E+02 1.37432E-13-3.80284E-14 1.04245E-13-7.94752E-15-6.90833E-15
 -1        30 9.99960E+01 1.25883E-13-8.24146E-14 6.43205E-14 2.25884E-14 1.34022E-14
 -1        31 9.99960E+01 4.96440E-14 7.56848E-14 1.13088E-13-2.09306E-14 5.27458E-14
 -1        32 1.00005E+02 2.49142E-14 7.77832E-14 1.01462E-13-1.71199E-15 1.95609E-14
 -1        33 9.99960E+01 5.67786E-14 1.32853E-13 1.18913E-13 1.67121E-14-5.49458E-14
 -1        34 1.00005E+02 7.00219E-14 7.48895E-14-3.09441E-14-4.25953E-15 5.94638E-14
 -1        36 1.00005E+02 5.12870E-14 5.00394E-14-2.38508E-14-7.14546E-15-8.36179E-15
 -1        37 1.00005E+02 4.43776E-14-2.52412E-14-2.46445E-14-2.51947E-14-1.77983E-14
 -1        39 1.00005E+02 7.11552E-15-4.52129E-14-1.28987E-14-1.91036E-14 1.73550E-14
 -1        40 1.00005E+02 9.46669E-14 4.95522E-14 7.68077E-14-2.26671E-14 2.54482E-15
 -1        42 1.00005E+02 6.01708E-14 3.37756E-16 6.31752E-14 8.12059E-15-4.08618E-14
 -1        43 1.00005E+02-7.45470E-14 6.10977E-14 3.00433E-14 1.40724E-14 7.75693E-14
 -1        45 1.00005E+02-9.15590E-14 7.20064E-16 3.41598E-14 1.55665E-14-4.43733E-14
 -1        46 9.99960E+01 1.83546E-14 7.27863E-14 2.44420E-13 1.84230E-14 4.04106E-14
 -1        47 1.00005E+02 9.33341E-15 5.18111E-14 2.19385E-13 7.81857E-15-8.31711E-18
 -1        48 9.99960E+01-2.64905E-15 1.85829E-14 2.51345E-13 2.10151E-14-3.63625E-15
 -1        49 9.99960E+01 1.71581E-14 9.89154E-15 2.24409E-14-1.87477E-14 4.46587E-14
 -1        50 1.00005E+02-2.98278E-14-6.50567E-14 2.59363E-14 2.35063E-15-1.40290E-14
 -1        51 9.99960E+01-2.27296E-14-1.22993E-13 7.77844E-16 2.26904E-15-6.84938E-14
 -1        52 1.00005E+02 7.55996E-14 3.35095E-14 8.17362E-14-1.46796E-14-6.66828E-15
 -1        54 1.00005E+02 6.82341E-14-3.12728E-14 8.31249E-14 3.20917E-14 1.24585E-14
 -1        55 1.00005E+02 1.05695E-14 5.11519E-14 2.68416E-14-1.67822E-14 2.68021E-14
 -1        57 1.00005E+02-5.15307E-14-5.79545E-14 5.24599E-14 1.56715E-15-1.14557E-14
 -1        58 1.00005E+02 8.99642E-14 6.70954E-14 6.86422E-14-2.73165E-14 3.63195E-14
 -1        60 1.00005E+02 7.86799E-14 1.89245E-14 6.77653E-14 4.61753E-15-4.49785E-14
 -1        61 9.99960E+01 2.16734E-13 7.13285E-14-8.68983E-14-5.74209E-14-1.53157E-13
 -1        62 1.00005E+02 1.60125E-13 3.30637E-14-6.61360E-14-1.93066E-14-2.38600E-14
 -1        63 9.99960E+01 1.90894E-13 1.06529E-13-3.33976E-14 3.15777E-14 8.33570E-14
 -1        64 9.99960E+01-1.98537E-13-1.80399E-13-5.97294E-14-2.40794E-15-1.67498E-14
 -1        65 1.00005E+02-1.31850E-13-7.96794E-14-6.55527E-14 6.86646E-15 3.24694E-18
 -1        66 9.99960E+01-3.31803E-13-2.86748E-13-1.21061E-13 6.59846E-15 6.97027E-14
 -1        67 1.00005E+02-6.20282E-14-1.42164E-13-1.03758E-13-7.51863E-14-6.44149E-14
 -1        69 1.00005E+02 1.95588E-14-2.50495E-14-9.53569E-14 2.70630E-14 6.38616E-14
 -1        70 1.00005E+02-3.04720E-14-6.89652E-14 2.05290E-14 2.65865E-14-1.54496E-14
 -1        72 1.00005E+02-6.43016E-14-6.03752E-14 3.07816E-14-2.13657E-14 4.31635E-14
 -1        73 1.00005E+02-2.32651E-14-1.12569E-13 2.86710E-14 5.27364E-15 7.89648E-15
 -1        75 1.00005E+02-2.56438E-14-1.27652E-13 1.90296E-14-6.65608E-16 6.42259E-15
 -1        76 9.99960E+01-2.76649E-13-2.78516E-14 1.09617E-13 4.15953E-15-1.75423E-13
 -1        77 1.00005E+02-6.33558E-14 1.74260E-13 2.80220E-13-6.60114E-15 3.59285E-14
 -1        78 9.99960E+01-7.30629E-14 1.49857E-13 3.49302E-13-3.97008E-14 2.09190E-13
 -1        79 1.00005E+02-2.13401E-13-4.40254E-14 8.05027E-14-5.36366E-14-1.25044E-13
 -1        81 1.00005E+02-2.76059E-13-1.01733E-13 9.64727E-14 3.23870E-14 1.46844E-13
 -1        82 1.00005E+02 1.20818E-13 8.56112E-14 1.30865E-13 4.47393E-14-7.55900E-15
 -1        84 1.00005E+02 1.17373E-13 5.67579E-14 1.10481E-13-5.32888E-14 2.43854E-14
 -3
    1PSTEP                         3           1           1          
  100CL  101 1.000000000          51                     0    1           1
 -4  ERROR       1    1
 -5  STR(%)      1    1    0    0
 -1        22 2.71086E-14
 -1        23 2.71086E-14
 -1        24 2.71086E-14
 -1        25 5.28618E-14
 -1        26 5.28618E-14
 -1        27 5.28618E-14
 -1        28 6.64161E-14
 -1        29 6.64161E-14
 -1        30 6.64161E-14
 -1        31 4.74401E-14
 -1        32 4.74401E-14
 -1        33 4.74401E-14
 -1        34 3.99852E-14
 -1        36 3.99852E-14
 -1        37 5.96390E-14
 -1        39 5.96390E-14
 -1        40 5.69281E-14
 -1        42 5.69281E-14
 -1        43 3.72744E-14
 -1        45 3.72744E-14
 -1        46 6.64161E-14
 -1        47 6.64161E-14
 -1        48 6.64161E-14
 -1        49 4.74401E-14
 -1        50 4.74401E-14
 -1        51 4.74401E-14
 -1        52 6.64161E-14
 -1        54 6.64161E-14
 -1        55 5.69281E-14
 -1        57 5.69281E-14
 -1        58 4.74401E-14
 -1        60 4.74401E-14
 -1        61 5.28618E-14
 -1        62 5.28618E-14
 -1        63 5.28618E-14
 -1        64 6.64161E-14
 -1        65 6.64161E-14
 -1        66 6.64161E-14
 -1        67 5.28618E-14
 -1        69 5.28618E-14
 -1        70 5.96390E-14
 -1        72 5.96390E-14
 -1        73 6.64161E-14
 -1        75 6.64161E-14
 -1        76 6.64161E-14
 -1        77 6.64161E-14
 -1        78 6.64161E-14
 -1        79 6.64161E-14
 -1        81 6.64161E-14
 -1        82 6.64161E-14
 -1        84 6.64161E-14
 -3
    1PSTEP                         1           1           2          
  100CL  102 0.00000E+00          51                     3    2           1
 -4  NORM        4    1
 -5  NORMX       1    2	 1    0
 -5  NORMY       1    2	 2    0
 -5  NORMZ       1    2	 3    0
 -5  ALL         1    2	 0    0    1ALL
 -1        22 0.00000E+00-1.00000E+00 0.00000E+00
 -1        23 0.00000E+00-1.00000E+00 0.00000E+00
 -1        24 0.00000E+00-1.00000E+00 0.00000E+00
 -1        25 0.00000E+00-1.00000E+00 0.00000E+00
 -1        26 0.00000E+00-1.00000E+00 0.00000E+00
 -1        27 0.00000E+00-1.00000E+00 0.00000E+00
 -1        28 0.00000E+00 0.00000E+00 0.00000E+00
 -1        29 0.00000E+00 0.00000E+00 0.00000E+00
 -1        30 0.00000E+00 0.00000E+00 0.00000E+00
 -1        31 0.00000E+00 0.00000E+00 0.00000E+00
 -1        32 0.00000E+00 0.00000E+00 0.00000E+00
 -1        33 0.00000E+00 0.00000E+00 0.00000E+00
 -1        34 0.00000E+00-1.00000E+00 0.00000E+00
 -1        36 0.00000E+00-1.00000E+00 0.00000E+00
 -1        37 0.00000E+00 0.00000E+00 0.00000E+00
 -1        39 0.00000E+00 0.00000E+00 0.00000E+00
 -1        40 0.00000E+00 0.00000E+00 0.00000E+00
 -1        42 0.00000E+00 0.00000E+00 0.00000E+00
 -1        43 0.00000E+00 0.00000E+00 0.00000E+00
 -1        45 0.00000E+00 0.00000E+00 0.00000E+00
 -1        46 0.00000E+00 1.00000E+00 0.00000E+00
 -1        47 0.00000E+00 1.00000E+00 0.00000E+00
 -1        48 0.00000E+00 1.00000E+00 0.00000E+00
 -1        49 0.00000E+00 1.00000E+00 0.00000E+00
 -1        50 0.00000E+00 1.00000E+00 0.00000E+00
 -1        51 0.00000E+00 1.00000E+00 0.00000E+00
 -1        52 0.00000E+00 0.00000E+00 0.00000E+00
 -1        54 0.00000E+00 0.00000E+00 0.00000E+00
 -1        55 0.00000E+00 1.00000E+00 0.00000E+00
 -1        57 0.00000E+00 1.00000E+00 0.00000E+00
 -1        58 0.00000E+00 0.00000E+00 0.00000E+00
 -1        60 0.00000E+00 0.00000E+00 0.00000E+00
 -1        61 7.07107E-01-7.07107E-01 0.00000E+00
 -1        62 7.07107E-01-7.07107E-01 0.00000E+00
 -1        63 7.07107E-01-7.07107E-01 0.00000E+00
 -1        64 1.00000E+00 0.00000E+00 0.00000E+00
 -1        65 1.00000E+00 0.00000E+00 0.00000E+00
 -1        66 1.00000E+00 0.00000E+00 0.00000E+00
 -1        67 0.00000E+00-1.00000E+00 0.00000E+00
 -1        69 0.00000E+00-1.00000E+00 0.00000E+00
 -1        70 1.00000E+00 0.00000E+00 0.00000E+00
 -1        72 1.00000E+00 0.00000E+00 0.00000E+00
 -1        73 0.00000E+00 0.00000E+00 0.00000E+00
 -1        75 0.00000E+00 0.00000E+00 0.00000E+00
 -1        76 7.07107E-01 7.07107E-01 0.00000E+00
 -1        77 7.07107E-01 7.07107E-01 0.00000E+00
 -1        78 7.07107E-01 7.07107E-01 0.00000E+00
 -1        79 1.00000E+00 0.00000E+00 0.00000E+00
 -1        81 1.00000E+00 0.00000E+00 0.00000E+00
 -1        82 0.00000E+00 1.00000E+00 0.00000E+00
 -1        84 0.00000E+00 1.00000E+00 0.00000E+00
 -3
    1PSTEP                         2           1           2          
  100CL  103 0.00000E+00          51                     3    3           1
 -4  SENENER     2    1
 -5  DFDN        1    1    1    0
 -5  DFDNFIL     1    1    2    0
 -1        22 0.00000E+00 0.00000E+00
 -1        23 0.00000E+00 0.00000E+00
 -1        24 0.00000E+00 0.00000E+00
 -1        25-8.34860E-03-1.00000E+00
 -1        26-8.34860E-03-1.00000E+00
 -1        27-8.34860E-03-1.00000E+00
 -1        28 0.00000E+00 0.00000E+00
 -1        29 0.00000E+00 0.00000E+00
 -1        30 0.00000E+00 0.00000E+00
 -1        31 0.00000E+00 0.00000E+00
 -1        32 0.00000E+00 0.00000E+00
 -1        33 0.00000E+00 0.00000E+00
 -1        34 0.00000E+00 0.00000E+00
 -1        36 0.00000E+00 0.00000E+00
 -1        37 0.00000E+00 0.00000E+00
 -1        39 0.00000E+00 0.00000E+00
 -1        40 0.00000E+00 0.00000E+00
 -1        42 0.00000E+00 0.00000E+00
 -1        43 0.00000E+00 0.00000E+00
 -1        45 0.00000E+00 0.00000E+00
 -1        46-8.34860E-03-1.00000E+00
 -1        47-8.34860E-03-1.00000E+00
 -1        48-8.34860E-03-1.00000E+00
 -1        49 0.00000E+00 0.00000E+00
 -1        50 0.00000E+00 0.00000E+00
 -1        51 0.00000E+00 0.00000E+00
 -1        52 0.00000E+00 0.00000E+00
 -1        54 0.00000E+00 0.00000E+00
 -1        55 0.00000E+00 0.00000E+00
 -1        57 0.00000E+00 0.00000E+00
 -1        58 0.00000E+00 0.00000E+00
 -1        60 0.00000E+00 0.00000E+00
 -1        61 0.00000E+00 0.00000E+00
 -1        62 0.00000E+00 0.00000E+00
 -1        63 0.00000E+00 0.00000E+00
 -1        64 0.00000E+00 0.00000E+00
 -1        65 0.00000E+00 0.00000E+00
 -1        66 0.00000E+00 0.00000E+00
 -1        67 0.00000E+00 0.00000E+00
 -1        69 0.00000E+00 0.00000E+00
 -1        70 0.00000E+00 0.00000E+00
 -1        72 0.00000E+00 0.00000E+00
 -1        73 0.00000E+00 0.00000E+00
 -1        75 0.00000E+00 0.00000E+00
 -1        76 0.00000E+00 0.00000E+00
 -1        77 0.00000E+00 0.00000E+00
 -1        78 0.00000E+00 0.00000E+00
 -1        79 0.00000E+00 0.00000E+00
 -1        81 0.00000E+00 0.00000E+00
 -1        82 0.00000E+00 0.00000E+00
 -1        84 0.00000E+00 0.00000E+00
 -3
 9999
