    1C
    1UUSER                                                              
    1UDATE              24.november.2019                                
    1UTIME              19:38:05                                        
    1UHOST                                                              
    1UPGM               CalculiX                                        
    1UVERSION           Version 2.16                             
    1UCOMPILETIME       So 24. Nov 18:30:58 CET 2019                    
    1UDIR                                                               
    1UDBN                                                               
    1UMAT    1EL                                                        
    2C                            18                                     1
 -1        22-7.45058E-09-7.45058E-09-5.00000E-03
 -1        24-7.45058E-09-7.45058E-09 5.00000E-03
 -1        25 5.00000E-01-7.45058E-09-5.00000E-03
 -1        27 5.00000E-01-7.45058E-09 5.00000E-03
 -1        28 5.00000E-01 5.00000E-01-5.00000E-03
 -1        30 5.00000E-01 5.00000E-01 5.00000E-03
 -1        31-7.45058E-09 5.00000E-01-5.00000E-03
 -1        33-7.45058E-09 5.00000E-01 5.00000E-03
 -1        34 5.00000E-01 1.00000E+00-5.00000E-03
 -1        36 5.00000E-01 1.00000E+00 5.00000E-03
 -1        37-7.45058E-09 1.00000E+00-5.00000E-03
 -1        39-7.45058E-09 1.00000E+00 5.00000E-03
 -1        40 1.00000E+00-7.45058E-09-5.00000E-03
 -1        42 1.00000E+00-7.45058E-09 5.00000E-03
 -1        43 1.00000E+00 5.00000E-01-5.00000E-03
 -1        45 1.00000E+00 5.00000E-01 5.00000E-03
 -1        46 1.00000E+00 1.00000E+00-5.00000E-03
 -1        48 1.00000E+00 1.00000E+00 5.00000E-03
 -3
    3C                             4                                     1
 -1         1    1    0    1
 -2        22        25        28        31        24        27        30        33
 -1         2    1    0    1
 -2        31        28        34        37        33        30        36        39
 -1         3    1    0    1
 -2        25        40        43        28        27        42        45        30
 -1         4    1    0    1
 -2        28        43        46        34        30        45        48        36
 -3
    1PSTEP                         1           1           1          
  100CL  101 1.000000000          18                     0    1           1
 -4  DISP        4    1
 -5  D1          1    2    1    0
 -5  D2          1    2    2    0
 -5  D3          1    2    3    0
 -5  ALL         1    2    0    0    1ALL
 -1        22 0.00000E+00 7.14286E-05 0.00000E+00
 -1        24 0.00000E+00 7.14286E-05-1.42857E-06
 -1        25 2.38095E-04 7.14286E-05 0.00000E+00
 -1        27 2.38095E-04 7.14286E-05-1.42857E-06
 -1        28 2.38095E-04-5.65838E-17-3.46481E-18
 -1        30 2.38095E-04-5.65852E-17-1.42857E-06
 -1        31 0.00000E+00 0.00000E+00 0.00000E+00
 -1        33 0.00000E+00 0.00000E+00-1.42857E-06
 -1        34 2.38095E-04-7.14286E-05 0.00000E+00
 -1        36 2.38095E-04-7.14286E-05-1.42857E-06
 -1        37 0.00000E+00-7.14286E-05 0.00000E+00
 -1        39 0.00000E+00-7.14286E-05-1.42857E-06
 -1        40 4.76190E-04 7.14286E-05 0.00000E+00
 -1        42 4.76190E-04 7.14286E-05-1.42857E-06
 -1        43 4.76190E-04-1.74214E-16 0.00000E+00
 -1        45 4.76190E-04-1.74213E-16-1.42857E-06
 -1        46 4.76190E-04-7.14286E-05 0.00000E+00
 -1        48 4.76190E-04-7.14286E-05-1.42857E-06
 -3
    1PSTEP                         2           1           1          
  100CL  101 1.000000000          18                     0    1           1
 -4  STRESS      6    1
 -5  SXX         1    4    1    1
 -5  SYY         1    4    2    2
 -5  SZZ         1    4    3    3
 -5  SXY         1    4    1    2
 -5  SYZ         1    4    2    3
 -5  SZX         1    4    3    1
 -1        22 9.99960E+01-9.64779E-12-1.75241E-12-7.48981E-12 4.34263E-14-2.08584E-13
 -1        24 9.99960E+01-9.61417E-12-1.74010E-12-7.46968E-12-1.24659E-13-6.57779E-14
 -1        25 9.99960E+01-1.39595E-11-1.07078E-12 1.04033E-12 3.70515E-13 6.33859E-13
 -1        27 9.99960E+01-1.40065E-11-1.09704E-12 1.04471E-12 2.18098E-13 6.10827E-13
 -1        28 9.99960E+01-3.27833E-12-5.92521E-14 3.26637E-13 2.24016E-14 2.73353E-13
 -1        30 9.99960E+01-3.31023E-12-7.88386E-14 3.41654E-13-6.84650E-14 9.16780E-13
 -1        31 9.99960E+01-1.33429E-12-3.14965E-14-9.13970E-12 1.50922E-13-3.93226E-13
 -1        33 9.99960E+01-1.30478E-12 1.81133E-14-9.14052E-12 3.86502E-14-5.17132E-13
 -1        34 9.99960E+01-3.38731E-12 1.15236E-12 1.18790E-12-1.87315E-13 9.60607E-13
 -1        36 9.99960E+01-3.48367E-12 1.08902E-12 1.20104E-12-2.05203E-13 7.48653E-13
 -1        37 9.99960E+01 1.17141E-13-3.87597E-12-8.82754E-12-5.01096E-14-7.25311E-14
 -1        39 9.99960E+01 1.01979E-13-3.90344E-12-8.84459E-12-1.39273E-13 1.92301E-14
 -1        40 9.99960E+01 1.83643E-12-7.96885E-13 9.33154E-12-8.19749E-14 7.40587E-14
 -1        42 9.99960E+01 1.84664E-12-7.08324E-13 9.29905E-12-1.21251E-13-1.65774E-12
 -1        43 9.99960E+01 1.40391E-11 1.03468E-13 2.03995E-12 6.73633E-14-6.56879E-13
 -1        45 9.99960E+01 1.39622E-11 3.88572E-14 2.02701E-12 2.09800E-14-1.91509E-12
 -1        46 9.99960E+01 1.12153E-11 6.44220E-12-4.09966E-12-3.92904E-13-7.22101E-13
 -1        48 9.99960E+01 1.10804E-11 6.31177E-12-4.07731E-12-4.36435E-13 3.36428E-13
 -3
    1PSTEP                         3           1           1          
  100CL  101 1.000000000          18                     0    1           1
 -4  ERROR       1    1
 -5  STR(%)      1    1    0    0
 -1        22 9.59455E-12
 -1        24 9.59455E-12
 -1        25 9.85704E-12
 -1        27 9.85704E-12
 -1        28 9.85704E-12
 -1        30 9.85704E-12
 -1        31 9.59455E-12
 -1        33 9.59455E-12
 -1        34 7.54892E-12
 -1        36 7.54892E-12
 -1        37 7.54892E-12
 -1        39 7.54892E-12
 -1        40 9.85704E-12
 -1        42 9.85704E-12
 -1        43 9.85704E-12
 -1        45 9.85704E-12
 -1        46 3.63416E-12
 -1        48 3.63416E-12
 -3
    1PSTEP                         1           1           2          
  100CL  102 0.00000E+00          18                     3    2           1
 -4  NORM        4    1
 -5  NORMX       1    2	 1    0
 -5  NORMY       1    2	 2    0
 -5  NORMZ       1    2	 3    0
 -5  ALL         1    2	 0    0    1ALL
 -1        22 0.00000E+00-1.00000E+00 0.00000E+00
 -1        24 0.00000E+00-7.07107E-01 7.07107E-01
 -1        25 0.00000E+00-1.00000E+00 0.00000E+00
 -1        27 0.00000E+00-7.07107E-01 7.07107E-01
 -1        28 0.00000E+00 0.00000E+00-1.00000E+00
 -1        30 0.00000E+00 0.00000E+00 1.00000E+00
 -1        31 0.00000E+00 0.00000E+00 0.00000E+00
 -1        33 0.00000E+00 0.00000E+00 1.00000E+00
 -1        34 0.00000E+00 1.00000E+00 0.00000E+00
 -1        36 0.00000E+00 7.07107E-01 7.07107E-01
 -1        37 0.00000E+00 1.00000E+00 0.00000E+00
 -1        39 0.00000E+00 7.07107E-01 7.07107E-01
 -1        40 7.07107E-01-7.07107E-01 0.00000E+00
 -1        42 5.77350E-01-5.77350E-01 5.77350E-01
 -1        43 1.00000E+00 0.00000E+00 0.00000E+00
 -1        45 7.07107E-01 0.00000E+00 7.07107E-01
 -1        46 7.07107E-01 7.07107E-01 0.00000E+00
 -1        48 5.77350E-01 5.77350E-01 5.77350E-01
 -3
    1PSTEP                         2           1           2          
  100CL  103 0.00000E+00          18                     3    3           1
 -4  SENENER     2    1
 -5  DFDN        1    1    1    0
 -5  DFDNFIL     1    1    2    0
 -1        22 0.00000E+00 0.00000E+00
 -1        24 0.00000E+00 0.00000E+00
 -1        25-9.33710E-04-1.00000E+00
 -1        27 0.00000E+00 0.00000E+00
 -1        28 0.00000E+00 0.00000E+00
 -1        30 0.00000E+00 0.00000E+00
 -1        31 0.00000E+00 0.00000E+00
 -1        33 0.00000E+00 0.00000E+00
 -1        34 0.00000E+00 0.00000E+00
 -1        36 0.00000E+00 0.00000E+00
 -1        37 0.00000E+00 0.00000E+00
 -1        39 0.00000E+00 0.00000E+00
 -1        40 0.00000E+00 0.00000E+00
 -1        42 0.00000E+00 0.00000E+00
 -1        43 0.00000E+00 0.00000E+00
 -1        45 0.00000E+00 0.00000E+00
 -1        46 0.00000E+00 0.00000E+00
 -1        48 0.00000E+00 0.00000E+00
 -3
 9999
