
 displacements (vx,vy,vz) for set NALL and time  0.1000000E+01

         1  0.000000E+00  0.000000E+00  0.000000E+00
         2  0.000000E+00  0.000000E+00  0.000000E+00
         3  0.000000E+00  0.000000E+00  0.000000E+00
         4  0.000000E+00  0.000000E+00  0.000000E+00
         5  5.288692E-02  1.639336E-02  0.000000E+00
         6  0.000000E+00  0.000000E+00  0.000000E+00
         7  0.000000E+00  0.000000E+00  0.000000E+00
         8  0.000000E+00  0.000000E+00  0.000000E+00
         9  0.000000E+00  0.000000E+00  0.000000E+00
