    1C
    1UUSER                                                              
    1UDATE              24.november.2019                                
    1UTIME              19:38:08                                        
    1UHOST                                                              
    1UPGM               CalculiX                                        
    1UVERSION           Version 2.16                             
    1UCOMPILETIME       So 24. Nov 18:30:58 CET 2019                    
    1UDIR                                                               
    1UDBN                                                               
    1UMAT    1EL                                                        
    2C                            40                                     1
 -1        18 0.00000E+00 0.00000E+00-5.00000E-02
 -1        19 0.00000E+00 0.00000E+00 0.00000E+00
 -1        20 0.00000E+00 0.00000E+00 5.00000E-02
 -1        21 1.00000E+00 0.00000E+00-5.00000E-02
 -1        22 1.00000E+00 0.00000E+00 0.00000E+00
 -1        23 1.00000E+00 0.00000E+00 5.00000E-02
 -1        24 2.00000E+00 0.00000E+00-5.00000E-02
 -1        25 2.00000E+00 0.00000E+00 0.00000E+00
 -1        26 2.00000E+00 0.00000E+00 5.00000E-02
 -1        27 0.00000E+00 1.00000E+00-5.00000E-02
 -1        28 0.00000E+00 1.00000E+00 0.00000E+00
 -1        29 0.00000E+00 1.00000E+00 5.00000E-02
 -1        30 1.00000E+00 1.00000E+00-5.00000E-02
 -1        31 1.00000E+00 1.00000E+00 0.00000E+00
 -1        32 1.00000E+00 1.00000E+00 5.00000E-02
 -1        33 2.00000E+00 1.00000E+00-5.00000E-02
 -1        34 2.00000E+00 1.00000E+00 0.00000E+00
 -1        35 2.00000E+00 1.00000E+00 5.00000E-02
 -1        36 5.00000E-01 0.00000E+00-5.00000E-02
 -1        38 5.00000E-01 0.00000E+00 5.00000E-02
 -1        39 1.50000E+00 0.00000E+00-5.00000E-02
 -1        41 1.50000E+00 0.00000E+00 5.00000E-02
 -1        42 0.00000E+00 5.00000E-01-5.00000E-02
 -1        44 0.00000E+00 5.00000E-01 5.00000E-02
 -1        45 1.00000E+00 5.00000E-01-5.00000E-02
 -1        47 1.00000E+00 5.00000E-01 5.00000E-02
 -1        48 2.00000E+00 5.00000E-01-5.00000E-02
 -1        50 2.00000E+00 5.00000E-01 5.00000E-02
 -1        51 5.00000E-01 1.00000E+00-5.00000E-02
 -1        53 5.00000E-01 1.00000E+00 5.00000E-02
 -1        54 1.50000E+00 1.00000E+00-5.00000E-02
 -1        56 1.50000E+00 1.00000E+00 5.00000E-02
 -1        57 1.00000E+00 0.00000E+00-5.00000E-02
 -1        58 1.00000E+00 0.00000E+00 0.00000E+00
 -1        59 1.00000E+00 0.00000E+00 5.00000E-02
 -1        60 1.00000E+00 1.00000E+00-5.00000E-02
 -1        61 1.00000E+00 1.00000E+00 0.00000E+00
 -1        62 1.00000E+00 1.00000E+00 5.00000E-02
 -1        63 1.00000E+00 5.00000E-01-5.00000E-02
 -1        65 1.00000E+00 5.00000E-01 5.00000E-02
 -3
    3C                             2                                     1
 -1         1    4    0    1
 -2        18        57        60        27        20        59        62        29        36        63
 -2        51        42        19        58        61        28        38        65        53        44
 -1         2    4    0    1
 -2        21        24        33        30        23        26        35        32        39        48
 -2        54        45        22        25        34        31        41        50        56        47
 -3
    1PSTEP                         1           1           1          
  100CL  101 1.000000000          40                     0    1           1
 -4  DISP        4    1
 -5  D1          1    2    1    0
 -5  D2          1    2    2    0
 -5  D3          1    2    3    0
 -5  ALL         1    2    0    0    1ALL
 -1        18 0.00000E+00 0.00000E+00 0.00000E+00
 -1        19 0.00000E+00 0.00000E+00 0.00000E+00
 -1        20 0.00000E+00 0.00000E+00 0.00000E+00
 -1        21 4.17100E-04-8.41744E-05 0.00000E+00
 -1        22 4.17100E-04-8.41744E-05 0.00000E+00
 -1        23 4.17100E-04-8.41744E-05 0.00000E+00
 -1        24 0.00000E+00 0.00000E+00 0.00000E+00
 -1        25 0.00000E+00 0.00000E+00 0.00000E+00
 -1        26 0.00000E+00 0.00000E+00 0.00000E+00
 -1        27 0.00000E+00 0.00000E+00 0.00000E+00
 -1        28 0.00000E+00 0.00000E+00 0.00000E+00
 -1        29 0.00000E+00 0.00000E+00 0.00000E+00
 -1        30 4.17100E-04 8.41744E-05 0.00000E+00
 -1        31 4.17100E-04 8.41744E-05 0.00000E+00
 -1        32 4.17100E-04 8.41744E-05 0.00000E+00
 -1        33 0.00000E+00 0.00000E+00 0.00000E+00
 -1        34 0.00000E+00 0.00000E+00 0.00000E+00
 -1        35 0.00000E+00 0.00000E+00 0.00000E+00
 -1        36-1.99531E-04-8.98332E-05 0.00000E+00
 -1        38-1.99531E-04-8.98332E-05 0.00000E+00
 -1        39 1.99531E-04-8.98332E-05 0.00000E+00
 -1        41 1.99531E-04-8.98332E-05 0.00000E+00
 -1        42 0.00000E+00 0.00000E+00 0.00000E+00
 -1        44 0.00000E+00 0.00000E+00 0.00000E+00
 -1        45 4.17100E-04 3.07737E-18 0.00000E+00
 -1        47 4.17100E-04 3.07737E-18 0.00000E+00
 -1        48 0.00000E+00 0.00000E+00 0.00000E+00
 -1        50 0.00000E+00 0.00000E+00 0.00000E+00
 -1        51-1.99531E-04 8.98332E-05 0.00000E+00
 -1        53-1.99531E-04 8.98332E-05 0.00000E+00
 -1        54 1.99531E-04 8.98332E-05 0.00000E+00
 -1        56 1.99531E-04 8.98332E-05 0.00000E+00
 -1        57-4.17100E-04-8.41744E-05 0.00000E+00
 -1        58-4.17100E-04-8.41744E-05 0.00000E+00
 -1        59-4.17100E-04-8.41744E-05 0.00000E+00
 -1        60-4.17100E-04 8.41744E-05 0.00000E+00
 -1        61-4.17100E-04 8.41744E-05 0.00000E+00
 -1        62-4.17100E-04 8.41744E-05 0.00000E+00
 -1        63-4.17100E-04 3.07737E-18 0.00000E+00
 -1        65-4.17100E-04 3.07737E-18 0.00000E+00
 -3
    1PSTEP                         2           1           1          
  100CL  101 1.000000000          40                     0    1           1
 -4  STRESS      6    1
 -5  SXX         1    4    1    1
 -5  SYY         1    4    2    2
 -5  SZZ         1    4    3    3
 -5  SXY         1    4    1    2
 -5  SYZ         1    4    2    3
 -5  SZX         1    4    3    1
 -1        18-1.07709E+02-4.61623E+01-4.61613E+01-2.22245E+01-5.19365E-14 1.51576E-14
 -1        19-1.07718E+02-4.61632E+01-4.61643E+01-2.22245E+01 2.25083E-15 7.40515E-14
 -1        20-1.07709E+02-4.61623E+01-4.61613E+01-2.22245E+01 5.26618E-14-2.87610E-14
 -1        21-1.07709E+02-7.31239E+00-3.45064E+01-8.62702E+00-1.61271E-13 7.01868E-13
 -1        22-1.07718E+02-7.31334E+00-3.45094E+01-8.62702E+00-3.13962E-16 1.88936E-14
 -1        23-1.07709E+02-7.31239E+00-3.45064E+01-8.62702E+00 1.24882E-13-1.11594E-12
 -1        24-1.07709E+02-4.61623E+01-4.61613E+01 2.22245E+01-2.93943E-13 7.17401E-13
 -1        25-1.07718E+02-4.61632E+01-4.61643E+01 2.22245E+01-7.21670E-15-6.17666E-14
 -1        26-1.07709E+02-4.61623E+01-4.61613E+01 2.22245E+01 2.93566E-13-6.43394E-13
 -1        27-1.07709E+02-4.61623E+01-4.61613E+01 2.22245E+01 4.73529E-14-8.69169E-14
 -1        28-1.07718E+02-4.61632E+01-4.61643E+01 2.22245E+01-2.80146E-15-6.25014E-14
 -1        29-1.07709E+02-4.61623E+01-4.61613E+01 2.22245E+01-2.19774E-14-3.35015E-14
 -1        30-1.07709E+02-7.31239E+00-3.45064E+01 8.62702E+00-1.17184E-13-1.31359E-13
 -1        31-1.07718E+02-7.31334E+00-3.45094E+01 8.62702E+00 1.28755E-14 6.54173E-14
 -1        32-1.07709E+02-7.31239E+00-3.45064E+01 8.62702E+00 1.22477E-13 4.66014E-13
 -1        33-1.07709E+02-4.61623E+01-4.61613E+01-2.22245E+01 2.65561E-13 2.69430E-13
 -1        34-1.07718E+02-4.61632E+01-4.61643E+01-2.22245E+01 5.97268E-15 6.64629E-15
 -1        35-1.07709E+02-4.61623E+01-4.61613E+01-2.22245E+01-2.48582E-13-4.00240E-13
 -1        36-9.61485E+01 2.56783E-01-2.87675E+01-6.79873E+00 2.84341E-14-2.60888E-13
 -1        38-9.61485E+01 2.56783E-01-2.87675E+01-6.79873E+00-5.68572E-14 1.79463E-14
 -1        39-9.61485E+01 2.56783E-01-2.87675E+01 6.79873E+00-3.35452E-14 1.00893E-13
 -1        41-9.61485E+01 2.56783E-01-2.87675E+01 6.79873E+00 2.46281E-14-1.44229E-13
 -1        42-1.07718E+02-4.61632E+01-4.61643E+01 1.53932E-13-9.62609E-15 1.41250E-14
 -1        44-1.07718E+02-4.61632E+01-4.61643E+01 1.53988E-13 1.33467E-14 5.88939E-14
 -1        45-1.07718E+02-7.31334E+00-3.45094E+01-3.30846E-13-7.73220E-14-7.45371E-15
 -1        47-1.07718E+02-7.31334E+00-3.45094E+01-3.36842E-13 6.55047E-14-1.55964E-13
 -1        48-1.07718E+02-4.61632E+01-4.61643E+01-5.45564E-13-2.63024E-14 3.31106E-13
 -1        50-1.07718E+02-4.61632E+01-4.61643E+01-5.51559E-13 3.62500E-14-3.13639E-13
 -1        51-9.61485E+01 2.56783E-01-2.87675E+01 6.79873E+00-1.36465E-13-1.50262E-14
 -1        53-9.61485E+01 2.56783E-01-2.87675E+01 6.79873E+00 1.06629E-13 1.47044E-13
 -1        54-9.61485E+01 2.56783E-01-2.87675E+01-6.79873E+00-3.18983E-14 4.65315E-13
 -1        56-9.61485E+01 2.56783E-01-2.87675E+01-6.79873E+00 1.16758E-14-4.21978E-13
 -1        57-1.07709E+02-7.31239E+00-3.45064E+01 8.62702E+00-2.60841E-13-5.73329E-13
 -1        58-1.07718E+02-7.31334E+00-3.45094E+01 8.62702E+00-3.97908E-15 1.64545E-13
 -1        59-1.07709E+02-7.31239E+00-3.45064E+01 8.62702E+00 2.41466E-13 8.03372E-13
 -1        60-1.07709E+02-7.31239E+00-3.45064E+01-8.62702E+00-8.61423E-15-9.15671E-14
 -1        61-1.07718E+02-7.31334E+00-3.45094E+01-8.62702E+00-2.27148E-14 2.45170E-15
 -1        62-1.07709E+02-7.31239E+00-3.45064E+01-8.62702E+00-1.44223E-13 3.46150E-13
 -1        63-1.07718E+02-7.31334E+00-3.45094E+01-6.32827E-14-4.97744E-14-6.11104E-15
 -1        65-1.07718E+02-7.31334E+00-3.45094E+01-6.17284E-14 9.68724E-15 1.26235E-13
 -3
 9999
