
 displacements (vx,vy,vz) for set NALL and time  0.1000000E+01

         1  3.706028E-05 -1.254755E-04 -1.062273E-04
         2 -6.458800E-06 -5.847077E-05 -1.014949E-04
         3 -4.571020E-06 -5.639818E-05 -5.039442E-05
         4  2.721281E-05 -1.218712E-04 -4.577062E-05
         5  6.486773E-05 -1.307400E-04 -2.280238E-04
         6 -5.073682E-06 -5.598935E-05 -1.559627E-04
         7 -4.244858E-06 -5.621797E-05 -8.598413E-05
         8  4.345177E-05 -1.451925E-04 -1.338010E-04
         9  1.382795E-05 -9.113674E-05 -1.120135E-04
        10 -6.792470E-06 -5.718250E-05 -7.420508E-05
        11  1.037867E-05 -9.375946E-05 -5.227061E-05
        12  3.540640E-05 -1.243370E-04 -7.059454E-05
        13  5.377353E-05 -1.259988E-04 -1.418431E-04
        14 -5.655731E-06 -5.806449E-05 -1.249193E-04
        15 -4.292476E-06 -5.828186E-05 -6.601692E-05
        16  3.733577E-05 -1.287004E-04 -7.532533E-05
        17 -3.479854E-06 -9.207440E-05 -1.883511E-04
        18 -6.301570E-06 -5.656890E-05 -1.221945E-04
        19 -2.540200E-07 -8.703548E-05 -1.066219E-04
        20  5.788868E-05 -1.376504E-04 -1.904614E-04
        21 -1.580553E-06 -5.834877E-05 -8.553826E-06
        22  1.322016E-05 -1.169625E-04 -2.765309E-06
        23 -1.151926E-06 -5.796219E-05 -1.631549E-05
        24  6.202700E-06 -1.232620E-04 -2.342209E-05
        25 -1.816728E-06 -5.770503E-05 -2.807187E-05
        26  4.151238E-06 -9.018831E-05 -4.216733E-06
        27  1.779234E-05 -1.190768E-04 -2.925342E-05
        28 -1.731893E-06 -5.901042E-05 -1.222026E-05
        29  1.114372E-05 -1.175793E-04 -1.481310E-05
        30 -1.991739E-06 -5.599866E-05 -5.057586E-05
        31  3.173153E-06 -8.791939E-05 -2.286793E-05
        32  2.354110E-05 -1.361588E-04 -5.930281E-05
        33 -3.849823E-07 -5.992080E-05  3.769149E-05
        34  5.686534E-06 -1.158433E-04  4.276545E-05
        35 -1.508645E-07 -5.791905E-05  3.266578E-05
        36  3.512473E-06 -1.159057E-04  3.705518E-05
        37 -4.264063E-07 -5.905541E-05  1.280968E-05
        38  1.955315E-06 -8.748130E-05  4.104600E-05
        39  7.785539E-06 -1.160786E-04  1.709248E-05
        40 -2.837167E-07 -5.883128E-05  3.499826E-05
        41  5.014247E-06 -1.157115E-04  3.900769E-05
        42 -2.188893E-07 -5.856675E-05  8.212077E-06
        43  1.360831E-06 -8.801004E-05  3.701664E-05
        44  3.589894E-06 -1.179708E-04  8.881540E-06
        45 -6.424359E-05 -1.307594E-04 -2.291951E-04
        46  5.303817E-06 -5.598871E-05 -1.562494E-04
        47  4.477863E-06 -5.621611E-05 -8.617250E-05
        48 -4.287913E-05 -1.453835E-04 -1.346758E-04
        49  3.902191E-07 -1.356485E-04 -3.524943E-04
        50  7.115567E-08 -5.361812E-05 -1.589828E-04
        51  9.030956E-08 -5.279996E-05 -8.815135E-05
        52  3.341463E-07 -1.515746E-04 -2.089364E-04
        53  3.805306E-06 -9.211240E-05 -1.889127E-04
        54  6.527262E-06 -5.657260E-05 -1.224339E-04
        55  6.016562E-07 -8.702712E-05 -1.070381E-04
        56 -5.726389E-05 -1.377482E-04 -1.915978E-04
        57  1.381657E-06 -5.796709E-05 -1.639596E-05
        58 -5.754157E-06 -1.233209E-04 -2.349231E-05
        59  1.159262E-07 -5.612784E-05 -1.984739E-05
        60  2.232430E-07 -1.267338E-04 -1.662405E-05
        61  2.228372E-06 -5.599451E-05 -5.072569E-05
        62 -2.828697E-06 -8.793657E-05 -2.297946E-05
        63 -2.303921E-05 -1.362944E-04 -5.958582E-05
        64  3.950435E-07 -5.791959E-05  3.260560E-05
        65 -3.081037E-06 -1.159367E-04  3.697754E-05
        66  1.214651E-07 -5.858935E-05  3.300589E-05
        67  2.170685E-07 -1.151129E-04  3.340901E-05
        68  4.570236E-07 -5.857019E-05  8.145263E-06
        69 -1.015792E-06 -8.803112E-05  3.696140E-05
        70 -3.165240E-06 -1.180127E-04  8.818198E-06
        71 -3.679724E-05 -1.256055E-04 -1.067198E-04
        72  6.658683E-06 -5.847703E-05 -1.019383E-04
        73  4.794365E-06 -5.638782E-05 -5.075792E-05
        74 -2.687391E-05 -1.219943E-04 -4.611994E-05
        75 -5.340834E-05 -1.260887E-04 -1.425288E-04
        76  5.914675E-06 -5.806324E-05 -1.253456E-04
        77  4.546852E-06 -5.828068E-05 -6.632812E-05
        78 -3.692791E-05 -1.288626E-04 -7.582483E-05
        79 -1.342620E-05 -9.118776E-05 -1.126089E-04
        80  7.014964E-06 -5.718007E-05 -7.462155E-05
        81 -9.996188E-06 -9.381610E-05 -5.271002E-05
        82 -3.511829E-05 -1.244657E-04 -7.099924E-05
        83  1.831847E-06 -5.835164E-05 -8.827781E-06
        84 -1.279740E-05 -1.170562E-04 -3.024892E-06
        85  1.971342E-06 -5.901447E-05 -1.238630E-05
        86 -1.070702E-05 -1.176682E-04 -1.501756E-05
        87  2.040295E-06 -5.769860E-05 -2.837350E-05
        88 -3.817176E-06 -9.022759E-05 -4.475002E-06
        89 -1.738852E-05 -1.191900E-04 -2.960664E-05
        90  6.245202E-07 -5.993241E-05  3.749379E-05
        91 -5.259488E-06 -1.159150E-04  4.255570E-05
        92  5.262004E-07 -5.883731E-05  3.487561E-05
        93 -4.586366E-06 -1.157692E-04  3.888580E-05
        94  6.703962E-07 -5.906572E-05  1.258082E-05
        95 -1.614496E-06 -8.752080E-05  4.083203E-05
        96 -7.363609E-06 -1.161544E-04  1.686263E-05
        97 -5.789528E-06 -1.350228E-05 -6.436331E-05
        98 -4.533865E-06 -1.362113E-05 -3.534006E-05
        99 -3.233374E-06 -1.328001E-05 -6.834947E-05
       100 -2.608721E-06 -1.344010E-05 -3.858956E-05
       101 -1.060328E-05 -3.212551E-05 -8.950111E-05
       102 -5.524462E-06 -1.352997E-05 -4.987716E-05
       103 -7.737232E-06 -3.120750E-05 -4.696744E-05
       104 -5.853398E-06 -1.358715E-05 -6.447072E-05
       105 -4.558256E-06 -1.393141E-05 -3.548925E-05
       106 -4.690230E-06 -3.028448E-05 -1.080909E-04
       107 -3.131582E-06 -1.307785E-05 -5.395639E-05
       108 -4.064304E-06 -3.117137E-05 -6.039782E-05
       109 -2.196009E-06 -1.472991E-05 -7.619835E-06
       110 -1.210200E-06 -1.477319E-05 -9.321343E-06
       111 -3.427356E-06 -1.401123E-05 -2.125953E-05
       112 -2.762097E-06 -3.327218E-05 -8.930283E-06
       113 -1.936823E-06 -1.512164E-05 -7.828577E-06
       114 -1.986949E-06 -1.424539E-05 -2.358937E-05
       115 -1.762348E-06 -3.298229E-05 -1.338464E-05
       116 -1.118707E-06 -1.542618E-05  1.987073E-05
       117 -7.347056E-07 -1.557836E-05  1.925341E-05
       118 -1.380553E-06 -1.527405E-05  5.576810E-06
       119 -1.315454E-06 -3.448360E-05  2.972724E-05
       120 -1.091317E-06 -1.564114E-05  1.984403E-05
       121 -7.769110E-07 -1.531920E-05  4.754712E-06
       122 -7.483947E-07 -3.391327E-05  2.699309E-05
       123  3.277876E-06 -1.327233E-05 -6.843236E-05
       124  2.658693E-06 -1.343249E-05 -3.866147E-05
       125  2.744880E-08 -1.310637E-05 -7.056575E-05
       126  2.776301E-08 -1.367528E-05 -4.041969E-05
       127  4.806493E-06 -3.027272E-05 -1.082401E-04
       128  3.174742E-06 -1.306878E-05 -5.403852E-05
       129  4.186654E-06 -3.116425E-05 -6.050931E-05
       130  1.278100E-06 -1.476648E-05 -9.371725E-06
       131  3.323716E-08 -1.482238E-05 -9.677568E-06
       132  2.044985E-06 -1.423886E-05 -2.364782E-05
       133  1.901831E-06 -3.297672E-05 -1.345353E-05
       134  8.070589E-07 -1.557304E-05  1.921392E-05
       135  3.649796E-08 -1.517713E-05  1.884885E-05
       136  8.504323E-07 -1.531398E-05  4.713285E-06
       137  8.976693E-07 -3.391103E-05  2.694216E-05
       138  5.855891E-06 -1.348448E-05 -6.459946E-05
       139  4.597514E-06 -1.360674E-05 -3.554617E-05
       140  5.903628E-06 -1.357235E-05 -6.462922E-05
       141  4.612288E-06 -1.391602E-05 -3.562640E-05
       142  1.074327E-05 -3.211033E-05 -8.984803E-05
       143  5.586651E-06 -1.351381E-05 -5.010641E-05
       144  7.880579E-06 -3.118679E-05 -4.726214E-05
       145  2.262872E-06 -1.472000E-05 -7.776077E-06
       146  2.004917E-06 -1.511006E-05 -7.928960E-06
       147  3.495422E-06 -1.399867E-05 -2.144104E-05
       148  2.908836E-06 -3.326296E-05 -9.154630E-06
       149  1.193497E-06 -1.541773E-05  1.973130E-05
       150  1.164567E-06 -1.563269E-05  1.976214E-05
       151  1.452732E-06 -1.526533E-05  5.434252E-06
       152  1.465500E-06 -3.447828E-05  2.954924E-05
       153  0.000000E+00  0.000000E+00  0.000000E+00
       154  0.000000E+00  0.000000E+00  0.000000E+00
       155  0.000000E+00  0.000000E+00  0.000000E+00
       156  0.000000E+00  0.000000E+00  0.000000E+00
       157 -2.383132E-06 -3.070079E-06 -3.351118E-05
       158  0.000000E+00  0.000000E+00  0.000000E+00
       159 -1.923525E-06 -3.081125E-06 -1.894280E-05
       160  0.000000E+00  0.000000E+00  0.000000E+00
       161  0.000000E+00  0.000000E+00  0.000000E+00
       162 -1.576690E-06 -3.166073E-06 -3.314408E-05
       163  0.000000E+00  0.000000E+00  0.000000E+00
       164 -1.318892E-06 -3.218517E-06 -1.884209E-05
       165  0.000000E+00  0.000000E+00  0.000000E+00
       166  0.000000E+00  0.000000E+00  0.000000E+00
       167  0.000000E+00  0.000000E+00  0.000000E+00
       168 -1.039894E-06 -3.670243E-06 -4.422809E-06
       169  0.000000E+00  0.000000E+00  0.000000E+00
       170  0.000000E+00  0.000000E+00  0.000000E+00
       171 -6.331954E-07 -3.867477E-06 -4.541558E-06
       172  0.000000E+00  0.000000E+00  0.000000E+00
       173  0.000000E+00  0.000000E+00  0.000000E+00
       174  0.000000E+00  0.000000E+00  0.000000E+00
       175 -5.051688E-07 -4.006556E-06  1.003298E-05
       176  0.000000E+00  0.000000E+00  0.000000E+00
       177  0.000000E+00  0.000000E+00  0.000000E+00
       178 -4.258088E-07 -4.102977E-06  9.955470E-06
       179  0.000000E+00  0.000000E+00  0.000000E+00
       180  0.000000E+00  0.000000E+00  0.000000E+00
       181  0.000000E+00  0.000000E+00  0.000000E+00
       182  0.000000E+00  0.000000E+00  0.000000E+00
       183  1.584318E-06 -3.161801E-06 -3.318291E-05
       184  0.000000E+00  0.000000E+00  0.000000E+00
       185  1.328830E-06 -3.212485E-06 -1.887792E-05
       186  0.000000E+00  0.000000E+00  0.000000E+00
       187  0.000000E+00  0.000000E+00  0.000000E+00
       188  0.000000E+00  0.000000E+00  0.000000E+00
       189  6.537713E-07 -3.862592E-06 -4.566923E-06
       190  0.000000E+00  0.000000E+00  0.000000E+00
       191  0.000000E+00  0.000000E+00  0.000000E+00
       192  0.000000E+00  0.000000E+00  0.000000E+00
       193  4.490366E-07 -4.099499E-06  9.933510E-06
       194  0.000000E+00  0.000000E+00  0.000000E+00
       195  0.000000E+00  0.000000E+00  0.000000E+00
       196  0.000000E+00  0.000000E+00  0.000000E+00
       197  0.000000E+00  0.000000E+00  0.000000E+00
       198  2.392822E-06 -3.060412E-06 -3.361955E-05
       199  0.000000E+00  0.000000E+00  0.000000E+00
       200  1.935204E-06 -3.072532E-06 -1.904387E-05
       201  0.000000E+00  0.000000E+00  0.000000E+00
       202  0.000000E+00  0.000000E+00  0.000000E+00
       203  0.000000E+00  0.000000E+00  0.000000E+00
       204  1.058742E-06 -3.663173E-06 -4.504380E-06
       205  0.000000E+00  0.000000E+00  0.000000E+00
       206  0.000000E+00  0.000000E+00  0.000000E+00
       207  0.000000E+00  0.000000E+00  0.000000E+00
       208  5.281897E-07 -4.000869E-06  9.956248E-06
       209  0.000000E+00  0.000000E+00 -6.527236E-04
       210  0.000000E+00  0.000000E+00 -6.489238E-04
       211  0.000000E+00  0.000000E+00 -5.914478E-04
       212  0.000000E+00  0.000000E+00 -5.952319E-04
       213  2.275408E-06  5.164352E-05 -6.009469E-04
       214 -1.028561E-06  5.696755E-05 -5.858924E-04
       215 -7.972650E-07  5.685271E-05 -5.286954E-04
       216  2.469594E-06  5.155407E-05 -5.436441E-04
       217  0.000000E+00  0.000000E+00 -6.515402E-04
       218  0.000000E+00  0.000000E+00 -6.201571E-04
       219  0.000000E+00  0.000000E+00 -5.941054E-04
       220  0.000000E+00  0.000000E+00 -6.239909E-04
       221  8.673805E-07  2.582101E-05 -6.254174E-04
       222 -5.988980E-07  2.848767E-05 -6.183068E-04
       223 -4.744742E-07  2.842281E-05 -5.608727E-04
       224  9.789728E-07  2.577783E-05 -5.679725E-04
       225  1.541700E-06  5.493143E-05 -5.953847E-04
       226 -9.083088E-07  5.693738E-05 -5.572440E-04
       227  1.764047E-06  5.482209E-05 -5.381323E-04
       228  2.373866E-06  5.162573E-05 -5.722776E-04
       229  0.000000E+00  0.000000E+00 -5.339966E-04
       230  0.000000E+00  0.000000E+00 -5.376503E-04
       231 -5.395503E-07  5.652938E-05 -4.712486E-04
       232  2.688275E-06  5.131515E-05 -4.860979E-04
       233  0.000000E+00  0.000000E+00 -5.627170E-04
       234  0.000000E+00  0.000000E+00 -5.366211E-04
       235  0.000000E+00  0.000000E+00 -5.664517E-04
       236 -3.446173E-07  2.827625E-05 -5.034227E-04
       237  1.094338E-06  2.564878E-05 -5.104032E-04
       238 -6.652192E-07  5.669703E-05 -5.000573E-04
       239  2.016066E-06  5.454061E-05 -4.806501E-04
       240  2.563273E-06  5.143196E-05 -5.149184E-04
       241  0.000000E+00  0.000000E+00 -4.766586E-04
       242  0.000000E+00  0.000000E+00 -4.802910E-04
       243 -2.965571E-07  5.643072E-05 -4.136231E-04
       244  2.890610E-06  5.124181E-05 -4.285845E-04
       245  0.000000E+00  0.000000E+00 -5.052622E-04
       246  0.000000E+00  0.000000E+00 -4.793027E-04
       247  0.000000E+00  0.000000E+00 -5.088957E-04
       248 -2.244453E-07  2.820102E-05 -4.460316E-04
       249  1.183270E-06  2.562053E-05 -4.530166E-04
       250 -4.176406E-07  5.644678E-05 -4.424117E-04
       251  2.246687E-06  5.441862E-05 -4.231306E-04
       252  2.810033E-06  5.125416E-05 -4.572184E-04
       253 -1.711450E-06  1.032059E-04 -5.697869E-04
       254 -5.932847E-06  1.137625E-04 -5.140697E-04
       255 -5.348780E-06  1.135742E-04 -4.582009E-04
       256 -1.198885E-06  1.031102E-04 -5.129795E-04
       257  3.283632E-06  7.749895E-05 -5.812429E-04
       258 -2.132880E-06  8.541381E-05 -5.526420E-04
       259 -1.714966E-06  8.528766E-05 -4.958006E-04
       260  3.551740E-06  7.736600E-05 -5.241620E-04
       261 -1.849778E-06  1.095979E-04 -5.437120E-04
       262 -5.617188E-06  1.137509E-04 -4.858829E-04
       263 -1.381934E-06  1.094908E-04 -4.875077E-04
       264 -1.403886E-06  1.031732E-04 -5.414251E-04
       265 -4.825865E-06  1.132137E-04 -4.010040E-04
       266 -6.785768E-07  1.027316E-04 -4.554019E-04
       267 -1.327054E-06  8.477144E-05 -4.384053E-04
       268  3.895777E-06  7.697025E-05 -4.665898E-04
       269 -5.131571E-06  1.134254E-04 -4.299701E-04
       270 -9.075320E-07  1.092986E-04 -4.302272E-04
       271 -1.003409E-06  1.029336E-04 -4.843501E-04
       272 -4.511644E-06  1.127375E-04 -3.418328E-04
       273 -4.342752E-07  1.025513E-04 -3.973646E-04
       274 -1.088120E-06  8.463767E-05 -3.804543E-04
       275  4.309187E-06  7.677871E-05 -4.088194E-04
       276 -4.518148E-06  1.128615E-04 -3.708128E-04
       277 -6.185288E-07  1.091306E-04 -3.715711E-04
       278 -5.527570E-07  1.026136E-04 -4.264778E-04
       279 -4.078103E-05  1.537598E-04 -5.678697E-04
       280 -6.700473E-05  1.684935E-04 -4.035121E-04
       281 -6.475160E-05  1.701676E-04 -3.548966E-04
       282 -4.007011E-05  1.539734E-04 -5.116513E-04
       283 -1.190469E-05  1.284369E-04 -5.595562E-04
       284 -1.595008E-05  1.415800E-04 -4.653539E-04
       285 -1.563673E-05  1.415959E-04 -4.123088E-04
       286 -1.145298E-05  1.285276E-04 -5.036514E-04
       287 -6.109875E-05  1.622740E-04 -5.172837E-04
       288 -6.595730E-05  1.690454E-04 -3.798762E-04
       289 -5.952272E-05  1.631515E-04 -4.627760E-04
       290 -4.052132E-05  1.538117E-04 -5.397648E-04
       291 -6.396043E-05  1.737424E-04 -2.988699E-04
       292 -3.941196E-05  1.550668E-04 -4.544547E-04
       293 -1.501420E-05  1.420862E-04 -3.553978E-04
       294 -1.096185E-05  1.288612E-04 -4.464339E-04
       295 -6.418463E-05  1.718892E-04 -3.279408E-04
       296 -5.872807E-05  1.651427E-04 -4.056410E-04
       297 -3.962155E-05  1.544962E-04 -4.830422E-04
       298 -6.563713E-05  1.782078E-04 -2.294142E-04
       299 -3.904276E-05  1.552503E-04 -3.959207E-04
       300 -1.415576E-05  1.415874E-04 -2.923429E-04
       301 -1.059119E-05  1.291447E-04 -3.873081E-04
       302 -6.495951E-05  1.763278E-04 -2.671403E-04
       303 -5.939273E-05  1.670300E-04 -3.443435E-04
       304 -3.912557E-05  1.552373E-04 -4.245572E-04
       305  0.000000E+00  0.000000E+00 -6.439476E-04
       306  0.000000E+00  0.000000E+00 -5.863577E-04
       307 -1.046216E-05  5.722044E-05 -5.809701E-04
       308 -1.008450E-05  5.711324E-05 -5.236396E-04
       309  0.000000E+00  0.000000E+00 -6.461319E-04
       310  0.000000E+00  0.000000E+00 -6.150877E-04
       311  0.000000E+00  0.000000E+00 -5.886011E-04
       312 -5.152322E-06  2.861694E-05 -6.133289E-04
       313 -4.978162E-06  2.855699E-05 -5.557799E-04
       314 -5.803912E-06  5.772681E-05 -5.812085E-04
       315 -1.030096E-05  5.719940E-05 -5.522250E-04
       316 -5.496120E-06  5.761937E-05 -5.239299E-04
       317  0.000000E+00  0.000000E+00 -5.289345E-04
       318 -9.827181E-06  5.677975E-05 -4.662320E-04
       319  0.000000E+00  0.000000E+00 -5.576398E-04
       320  0.000000E+00  0.000000E+00 -5.311680E-04
       321 -4.855358E-06  2.840388E-05 -4.983617E-04
       322 -9.947798E-06  5.694885E-05 -4.950148E-04
       323 -5.234237E-06  5.728724E-05 -4.664686E-04
       324  0.000000E+00  0.000000E+00 -4.715016E-04
       325 -9.610293E-06  5.667490E-05 -4.085277E-04
       326  0.000000E+00  0.000000E+00 -5.001865E-04
       327  0.000000E+00  0.000000E+00 -4.737708E-04
       328 -4.739424E-06  2.832629E-05 -4.408774E-04
       329 -9.722306E-06  5.669238E-05 -4.373880E-04
       330 -4.999751E-06  5.720312E-05 -4.088213E-04
       331 -1.692067E-05  1.141123E-04 -5.094992E-04
       332 -1.622914E-05  1.139974E-04 -4.535572E-04
       333 -1.506547E-05  8.579638E-05 -5.478078E-04
       334 -1.456407E-05  8.564670E-05 -4.908449E-04
       335 -1.157899E-05  1.153635E-04 -4.975614E-04
       336 -1.654847E-05  1.141047E-04 -4.812959E-04
       337 -1.103381E-05  1.151119E-04 -4.420319E-04
       338 -1.558199E-05  1.136494E-04 -3.963950E-04
       339 -1.412990E-05  8.512894E-05 -4.335012E-04
       340 -1.580383E-05  1.138935E-04 -4.253373E-04
       341 -1.041566E-05  1.145754E-04 -3.849462E-04
       342 -1.508025E-05  1.131604E-04 -3.372015E-04
       343 -1.370775E-05  8.498528E-05 -3.754960E-04
       344 -1.547180E-05  1.132849E-04 -3.662144E-04
       345 -1.000695E-05  1.138508E-04 -3.256152E-04
       346  3.437241E-05  1.688043E-04 -4.014727E-04
       347  3.336478E-05  1.706974E-04 -3.526886E-04
       348 -1.262757E-05  1.417992E-04 -4.616199E-04
       349 -1.095969E-05  1.420655E-04 -4.084332E-04
       350 -1.593001E-05  1.684891E-04 -3.655481E-04
       351  3.337560E-05  1.694880E-04 -3.777051E-04
       352 -1.550034E-05  1.702525E-04 -3.183715E-04
       353  3.403876E-05  1.742260E-04 -2.967005E-04
       354 -1.032734E-05  1.425662E-04 -3.515435E-04
       355  3.362327E-05  1.723718E-04 -3.257353E-04
       356 -1.477059E-05  1.741885E-04 -2.619427E-04
       357  3.675557E-05  1.786745E-04 -2.273249E-04
       358 -1.020537E-05  1.420580E-04 -2.885134E-04
       359  3.558600E-05  1.768047E-04 -2.650090E-04
       360 -1.425284E-05  1.789324E-04 -1.882430E-04
       361  0.000000E+00  0.000000E+00 -6.371326E-04
       362  0.000000E+00  0.000000E+00 -5.795450E-04
       363 -1.282948E-05  5.246314E-05 -5.854970E-04
       364 -1.234599E-05  5.230328E-05 -5.281363E-04
       365  0.000000E+00  0.000000E+00 -6.414454E-04
       366  0.000000E+00  0.000000E+00 -6.082268E-04
       367  0.000000E+00  0.000000E+00 -5.838111E-04
       368 -6.158487E-06  2.622474E-05 -6.098721E-04
       369 -5.947224E-06  2.614883E-05 -5.523335E-04
       370 -1.262688E-05  5.546720E-05 -5.853403E-04
       371 -1.250020E-05  5.240988E-05 -5.566631E-04
       372 -1.229180E-05  5.534734E-05 -5.279053E-04
       373  0.000000E+00  0.000000E+00 -5.222748E-04
       374 -1.208802E-05  5.197869E-05 -4.709428E-04
       375  0.000000E+00  0.000000E+00 -5.509195E-04
       376  0.000000E+00  0.000000E+00 -5.264488E-04
       377 -5.827047E-06  2.598657E-05 -4.950860E-04
       378 -1.217234E-05  5.214447E-05 -4.995940E-04
       379 -1.201843E-05  5.502052E-05 -4.705713E-04
       380  0.000000E+00  0.000000E+00 -4.648373E-04
       381 -1.186918E-05  5.188785E-05 -4.133720E-04
       382  0.000000E+00  0.000000E+00 -4.935954E-04
       383  0.000000E+00  0.000000E+00 -4.689727E-04
       384 -5.697962E-06  2.594985E-05 -4.376259E-04
       385 -1.200033E-05  5.190306E-05 -4.421443E-04
       386 -1.181520E-05  5.488521E-05 -4.129286E-04
       387 -1.894531E-05  1.048914E-04 -5.544364E-04
       388 -1.826286E-05  1.047137E-04 -4.977330E-04
       389 -1.873863E-05  7.867481E-05 -5.658631E-04
       390 -1.826943E-05  7.854289E-05 -5.087963E-04
       391 -2.043184E-05  1.106918E-04 -5.340470E-04
       392 -1.902427E-05  1.048971E-04 -5.259005E-04
       393 -1.913591E-05  1.104876E-04 -4.777059E-04
       394 -1.798730E-05  1.039606E-04 -4.406082E-04
       395 -1.792218E-05  7.794332E-05 -4.516145E-04
       396 -1.805136E-05  1.042917E-04 -4.693534E-04
       397 -1.874742E-05  1.101722E-04 -4.206260E-04
       398 -1.745297E-05  1.037223E-04 -3.826117E-04
       399 -1.775115E-05  7.771690E-05 -3.938309E-04
       400 -1.772178E-05  1.037924E-04 -4.117886E-04
       401 -1.819565E-05  1.099536E-04 -3.619446E-04
       402  0.000000E+00  1.594114E-04 -5.506801E-04
       403  1.100034E-05  1.557082E-04 -4.966820E-04
       404 -1.671308E-05  1.319377E-04 -5.436400E-04
       405 -1.280567E-05  1.303860E-04 -4.887753E-04
       406  2.459837E-05  1.633806E-04 -5.086724E-04
       407  8.981164E-06  1.575645E-04 -5.234571E-04
       408  2.856775E-05  1.643666E-04 -4.535338E-04
       409  1.138604E-05  1.565666E-04 -4.397524E-04
       410 -1.196363E-05  1.302930E-04 -4.319857E-04
       411  1.119245E-05  1.560889E-04 -4.682614E-04
       412  2.938178E-05  1.660969E-04 -3.967108E-04
       413  1.215729E-05  1.566119E-04 -3.813683E-04
       414 -1.145290E-05  1.304487E-04 -3.729595E-04
       415  1.172013E-05  1.566328E-04 -4.099766E-04
       416  3.103628E-05  1.679754E-04 -3.354573E-04
