
 displacements (vx,vy,vz) for set NALL and time  0.1000000E+01

         1  0.000000E+00  0.000000E+00  0.000000E+00
         2  0.000000E+00  0.000000E+00  0.000000E+00
         3  0.000000E+00  0.000000E+00  0.000000E+00
         4  0.000000E+00  0.000000E+00  0.000000E+00
         5 -2.446455E-09 -6.329325E-03 -1.603738E-07
         6  2.446449E-09 -6.329325E-03 -1.603738E-07
         7  9.523117E-05 -6.234091E-03  1.547203E-03
         8 -9.523117E-05 -6.234091E-03  1.547203E-03
         9  0.000000E+00  0.000000E+00  0.000000E+00
        10  0.000000E+00  0.000000E+00  0.000000E+00
        11  0.000000E+00  0.000000E+00  0.000000E+00
        12  0.000000E+00  0.000000E+00  0.000000E+00
        13  0.000000E+00  0.000000E+00  0.000000E+00
        14  0.000000E+00  0.000000E+00  0.000000E+00
        15  0.000000E+00  0.000000E+00  0.000000E+00
        16  0.000000E+00  0.000000E+00  0.000000E+00
        17  0.000000E+00  0.000000E+00  0.000000E+00
        18  0.000000E+00  0.000000E+00  0.000000E+00
        19  0.000000E+00  0.000000E+00  0.000000E+00
        20  0.000000E+00  0.000000E+00  0.000000E+00
        21 -1.074675E-09 -6.311460E-03 -1.572135E-07
        22 -2.859086E-15 -6.305500E-03 -1.551229E-07
        23  1.074669E-09 -6.311460E-03 -1.572135E-07
        24  2.381151E-05 -6.323350E-03  3.866853E-04
        25  4.762087E-05 -6.305472E-03  7.735173E-04
        26  7.142609E-05 -6.275733E-03  1.160352E-03
        27  4.761583E-05 -6.216223E-03  1.547195E-03
        28 -1.994234E-15 -6.210258E-03  1.547190E-03
        29 -4.761583E-05 -6.216223E-03  1.547195E-03
        30 -7.142609E-05 -6.275733E-03  1.160352E-03
        31 -4.762087E-05 -6.305472E-03  7.735173E-04
        32 -2.381151E-05 -6.323350E-03  3.866853E-04
        33  2.500767E-06 -8.005101E-05 -5.764636E-06
        34 -1.007063E-06 -1.616126E-04  2.327475E-07
        35  4.068512E-07 -2.948277E-04 -7.486256E-07
        36 -4.897433E-07 -4.750945E-04  1.124132E-06
        37  4.273426E-08 -6.992293E-04 -3.618373E-07
        38 -3.606802E-08 -9.741745E-04 -6.794437E-08
        39  5.255882E-09 -1.294664E-03 -2.148529E-07
        40 -1.099668E-08 -1.664075E-03 -1.208425E-08
        41 -4.804118E-09 -2.080168E-03 -1.728569E-07
        42  1.078941E-08 -2.544542E-03 -1.313150E-07
        43 -3.551027E-09 -3.056148E-03 -1.615245E-07
        44  4.749700E-09 -3.615625E-03 -1.362519E-07
        45 -2.212860E-09 -4.222555E-03 -1.543885E-07
        46  4.152790E-09 -4.877220E-03 -1.479375E-07
        47 -1.224289E-09 -5.579427E-03 -1.555036E-07
        48  1.224283E-09 -5.579427E-03 -1.555036E-07
        49 -4.152795E-09 -4.877220E-03 -1.479375E-07
        50  2.212855E-09 -4.222555E-03 -1.543885E-07
        51 -4.749704E-09 -3.615625E-03 -1.362519E-07
        52  3.551023E-09 -3.056148E-03 -1.615245E-07
        53 -1.078941E-08 -2.544542E-03 -1.313150E-07
        54  4.804115E-09 -2.080168E-03 -1.728569E-07
        55  1.099668E-08 -1.664075E-03 -1.208425E-08
        56 -5.255884E-09 -1.294664E-03 -2.148529E-07
        57  3.606802E-08 -9.741745E-04 -6.794437E-08
        58 -4.273426E-08 -6.992293E-04 -3.618373E-07
        59  4.897433E-07 -4.750945E-04  1.124132E-06
        60 -4.068512E-07 -2.948277E-04 -7.486256E-07
        61  1.007063E-06 -1.616126E-04  2.327475E-07
        62 -2.500767E-06 -8.005101E-05 -5.764636E-06
        63  1.031935E-04  2.564327E-05  1.118354E-04
        64  8.027584E-05 -8.234377E-05  2.155439E-04
        65  9.680939E-05 -1.976115E-04  3.082348E-04
        66  9.260770E-05 -3.829766E-04  4.042649E-04
        67  9.559898E-05 -6.035876E-04  4.995087E-04
        68  9.456674E-05 -8.796439E-04  5.948159E-04
        69  9.537996E-05 -1.199279E-03  6.900701E-04
        70  9.505401E-05 -1.569032E-03  7.852196E-04
        71  9.527811E-05 -1.984894E-03  8.805280E-04
        72  9.517389E-05 -2.449357E-03  9.757458E-04
        73  9.525427E-05 -2.960898E-03  1.071006E-03
        74  9.521731E-05 -3.520403E-03  1.166228E-03
        75  9.524353E-05 -4.127313E-03  1.261476E-03
        76  9.522848E-05 -4.781988E-03  1.356710E-03
        77  9.524124E-05 -5.484187E-03  1.451955E-03
        78 -1.031935E-04  2.564327E-05  1.118354E-04
        79 -8.027584E-05 -8.234377E-05  2.155439E-04
        80 -9.680939E-05 -1.976115E-04  3.082348E-04
        81 -9.260770E-05 -3.829766E-04  4.042649E-04
        82 -9.559898E-05 -6.035876E-04  4.995087E-04
        83 -9.456674E-05 -8.796439E-04  5.948159E-04
        84 -9.537996E-05 -1.199279E-03  6.900701E-04
        85 -9.505401E-05 -1.569032E-03  7.852196E-04
        86 -9.527811E-05 -1.984894E-03  8.805280E-04
        87 -9.517389E-05 -2.449357E-03  9.757458E-04
        88 -9.525427E-05 -2.960898E-03  1.071006E-03
        89 -9.521731E-05 -3.520403E-03  1.166228E-03
        90 -9.524353E-05 -4.127313E-03  1.261476E-03
        91 -9.522848E-05 -4.781988E-03  1.356710E-03
        92 -9.524124E-05 -5.484187E-03  1.451955E-03
        93  0.000000E+00  0.000000E+00  0.000000E+00
        94  0.000000E+00  0.000000E+00  0.000000E+00
        95  0.000000E+00  0.000000E+00  0.000000E+00
        96  0.000000E+00  0.000000E+00  0.000000E+00
        97  0.000000E+00  0.000000E+00  0.000000E+00
        98 -2.644860E-15 -6.299540E-03  3.866854E-04
        99 -2.381025E-05 -6.287622E-03  7.735188E-04
       100 -2.429399E-15 -6.281676E-03  7.735197E-04
       101  2.381025E-05 -6.287622E-03  7.735188E-04
       102 -2.210493E-15 -6.251919E-03  1.160352E-03
       103 -4.939175E-17 -5.836726E-05 -2.859059E-06
       104  1.723517E-07 -1.434948E-04  3.388872E-08
       105 -1.471262E-16 -1.399843E-04  1.268487E-07
       106 -1.723517E-07 -1.434948E-04  3.388872E-08
       107 -2.755093E-16 -2.708580E-04 -5.816372E-07
       108  3.389224E-07 -4.578093E-04  9.627345E-07
       109 -4.362830E-16 -4.516774E-04  7.186529E-07
       110 -3.389224E-07 -4.578093E-04  9.627345E-07
       111 -6.171901E-16 -6.754248E-04 -2.357628E-07
       112 -7.962113E-09 -9.562514E-04 -1.112477E-07
       113 -8.222716E-16 -9.504237E-04 -1.371714E-07
       114  7.962111E-09 -9.562514E-04 -1.112477E-07
       115 -1.035476E-15 -1.270866E-03 -1.876887E-07
       116  1.272391E-08 -1.646221E-03 -3.964678E-08
       117 -1.264768E-15 -1.640224E-03 -7.393504E-08
       118 -1.272391E-08 -1.646221E-03 -3.964678E-08
       119 -1.479299E-15 -2.056384E-03 -1.538291E-07
       120 -7.625419E-09 -2.526660E-03 -1.411016E-07
       121 -1.702797E-15 -2.520695E-03 -1.491557E-07
       122  7.625415E-09 -2.526660E-03 -1.411016E-07
       123 -1.916138E-15 -3.032354E-03 -1.573954E-07
       124 -1.817347E-09 -3.597757E-03 -1.398594E-07
       125 -2.122759E-15 -3.591790E-03 -1.441497E-07
       126  1.817342E-09 -3.597757E-03 -1.398594E-07
       127 -2.318675E-15 -4.198754E-03 -1.524270E-07
       128 -2.270231E-09 -4.859355E-03 -1.496761E-07
       129 -2.511089E-15 -4.853396E-03 -1.509517E-07
       130  2.270226E-09 -4.859355E-03 -1.496761E-07
       131 -2.683090E-15 -5.555624E-03 -1.539486E-07
       132  5.289478E-05 -5.850309E-05  6.073681E-05
       133  2.000044E-05 -1.559494E-04  5.352078E-05
       134  4.154615E-05 -1.349481E-04  1.044229E-04
       135  6.100527E-05 -1.160130E-04  1.597269E-04
       136  4.775465E-05 -2.734093E-04  1.544140E-04
       137  2.349153E-05 -4.669282E-04  1.011179E-04
       138  4.733511E-05 -4.478608E-04  2.017619E-04
       139  6.993830E-05 -4.210495E-04  3.032352E-04
       140  4.747415E-05 -6.766194E-04  2.497973E-04
       141  2.383865E-05 -9.675719E-04  1.486731E-04
       142  4.775936E-05 -9.488184E-04  2.971982E-04
       143  7.117232E-05 -9.202732E-04  4.459566E-04
       144  4.757213E-05 -1.271307E-03  3.449591E-04
       145  2.384216E-05 -1.657750E-03  1.962234E-04
       146  4.768165E-05 -1.639589E-03  3.925367E-04
       147  7.136405E-05 -1.610242E-03  5.889051E-04
       148  4.760161E-05 -2.056556E-03  4.401970E-04
       149  2.382341E-05 -2.538464E-03  2.438394E-04
       150  4.764072E-05 -2.520464E-03  4.877913E-04
       151  7.140841E-05 -2.490868E-03  7.317636E-04
       152  4.761482E-05 -3.032414E-03  5.354251E-04
       153  2.381575E-05 -3.609614E-03  2.914484E-04
       154  4.762532E-05 -3.591703E-03  5.830396E-04
       155  7.142084E-05 -3.562004E-03  8.746359E-04
       156  4.761747E-05 -4.198778E-03  6.306626E-04
       157  2.381246E-05 -4.871242E-03  3.390647E-04
       158  4.762135E-05 -4.853359E-03  6.782794E-04
       159  7.142514E-05 -4.823626E-03  1.017496E-03
       160  4.761838E-05 -5.555638E-03  7.258998E-04
       161  1.613623E-17  4.742230E-05  1.243327E-04
       162  4.010876E-05 -6.248909E-05  2.132138E-04
       163 -1.174919E-17 -5.689203E-05  2.087190E-04
       164 -4.010876E-05 -6.248909E-05  2.132138E-04
       165 -6.693593E-17 -1.753487E-04  3.094096E-04
       166  4.621758E-05 -3.643795E-04  4.033904E-04
       167 -1.530419E-16 -3.570072E-04  4.028052E-04
       168 -4.621758E-05 -3.643795E-04  4.033904E-04
       169 -2.602250E-16 -5.804765E-04  4.998304E-04
       170  4.729070E-05 -8.612404E-04  5.947409E-04
       171 -3.869043E-16 -8.549050E-04  5.945336E-04
       172 -4.729070E-05 -8.612404E-04  5.947409E-04
       173 -5.282233E-16 -1.175722E-03  6.901059E-04
       174  4.752137E-05 -1.551015E-03  7.851682E-04
       175 -6.795373E-16 -1.544860E-03  7.851472E-04
       176 -4.752137E-05 -1.551015E-03  7.851682E-04
       177 -8.317185E-16 -1.961181E-03  8.805478E-04
       178  4.758793E-05 -2.431428E-03  9.757441E-04
       179 -9.872166E-16 -2.425413E-03  9.757317E-04
       180 -4.758793E-05 -2.431428E-03  9.757441E-04
       181 -1.139395E-15 -2.937125E-03  1.071008E-03
       182  4.760815E-05 -3.502520E-03  1.166224E-03
       183 -1.299525E-15 -3.496540E-03  1.166223E-03
       184 -4.760815E-05 -3.502520E-03  1.166224E-03
       185 -1.461599E-15 -4.103519E-03  1.261478E-03
       186  4.761431E-05 -4.764118E-03  1.356711E-03
       187 -1.631247E-15 -4.758153E-03  1.356710E-03
       188 -4.761431E-05 -4.764118E-03  1.356711E-03
       189 -1.809489E-15 -5.460387E-03  1.451954E-03
       190 -5.289478E-05 -5.850309E-05  6.073681E-05
       191 -6.100527E-05 -1.160130E-04  1.597269E-04
       192 -4.154615E-05 -1.349481E-04  1.044229E-04
       193 -2.000044E-05 -1.559494E-04  5.352078E-05
       194 -4.775465E-05 -2.734093E-04  1.544140E-04
       195 -6.993830E-05 -4.210495E-04  3.032352E-04
       196 -4.733511E-05 -4.478608E-04  2.017619E-04
       197 -2.349153E-05 -4.669282E-04  1.011179E-04
       198 -4.747415E-05 -6.766194E-04  2.497973E-04
       199 -7.117232E-05 -9.202732E-04  4.459566E-04
       200 -4.775936E-05 -9.488184E-04  2.971982E-04
       201 -2.383865E-05 -9.675719E-04  1.486731E-04
       202 -4.757213E-05 -1.271307E-03  3.449591E-04
       203 -7.136405E-05 -1.610242E-03  5.889051E-04
       204 -4.768165E-05 -1.639589E-03  3.925367E-04
       205 -2.384216E-05 -1.657750E-03  1.962234E-04
       206 -4.760161E-05 -2.056556E-03  4.401970E-04
       207 -7.140841E-05 -2.490868E-03  7.317636E-04
       208 -4.764072E-05 -2.520464E-03  4.877913E-04
       209 -2.382341E-05 -2.538464E-03  2.438394E-04
       210 -4.761482E-05 -3.032414E-03  5.354251E-04
       211 -7.142084E-05 -3.562004E-03  8.746359E-04
       212 -4.762532E-05 -3.591703E-03  5.830396E-04
       213 -2.381575E-05 -3.609614E-03  2.914484E-04
       214 -4.761747E-05 -4.198778E-03  6.306626E-04
       215 -7.142514E-05 -4.823626E-03  1.017496E-03
       216 -4.762135E-05 -4.853359E-03  6.782794E-04
       217 -2.381246E-05 -4.871242E-03  3.390647E-04
       218 -4.761838E-05 -5.555638E-03  7.258998E-04
       219 -2.174801E-17 -3.667972E-05  6.883911E-05
       220 -1.169913E-16 -1.343062E-04  5.075288E-05
       221 -2.079958E-05 -1.166383E-04  1.028770E-04
       222 -8.360554E-17 -1.131244E-04  1.004786E-04
       223  2.079958E-05 -1.166383E-04  1.028770E-04
       224 -4.944640E-17 -9.270704E-05  1.550012E-04
       225 -1.757898E-16 -2.495858E-04  1.550507E-04
       226 -3.676246E-16 -4.435801E-04  1.007748E-04
       227 -2.360225E-05 -4.307009E-04  2.014632E-04
       228 -2.974400E-16 -4.246280E-04  2.012232E-04
       229  2.360225E-05 -4.307009E-04  2.014632E-04
       230 -2.254997E-16 -3.963756E-04  3.021515E-04
       231 -4.421257E-16 -6.526402E-04  2.497720E-04
       232 -7.142176E-16 -9.439506E-04  1.486535E-04
       233 -2.388597E-05 -9.310103E-04  2.972681E-04
       234 -6.045105E-16 -9.253163E-04  2.972987E-04
       235  2.388597E-05 -9.310103E-04  2.972681E-04
       236 -4.969771E-16 -8.961787E-04  4.458827E-04
       237 -7.841301E-16 -1.247397E-03  3.449065E-04
       238 -1.115300E-15 -1.633995E-03  1.962301E-04
       239 -2.383763E-05 -1.621836E-03  3.925613E-04
       240 -9.673794E-16 -1.615931E-03  3.925960E-04
       241  2.383763E-05 -1.621836E-03  3.925613E-04
       242 -8.229942E-16 -1.586319E-03  5.888925E-04
       243 -1.157639E-15 -2.032700E-03  4.401801E-04
       244 -1.521586E-15 -2.514671E-03  2.438417E-04
       245 -2.382109E-05 -2.502635E-03  4.878056E-04
       246 -1.339074E-15 -2.496725E-03  4.878173E-04
       247  2.382109E-05 -2.502635E-03  4.878056E-04
       248 -1.163505E-15 -2.467029E-03  7.317694E-04
       249 -1.525201E-15 -3.008583E-03  5.354191E-04
       250 -1.915541E-15 -3.585808E-03  2.914483E-04
       251 -2.381246E-05 -3.573864E-03  5.830428E-04
       252 -1.708350E-15 -3.567925E-03  5.830469E-04
       253  2.381246E-05 -3.573864E-03  5.830428E-04
       254 -1.503360E-15 -3.538183E-03  8.746373E-04
       255 -1.891257E-15 -4.174959E-03  6.306611E-04
       256 -2.287775E-15 -4.847434E-03  3.390654E-04
       257 -2.381077E-05 -4.835509E-03  6.782807E-04
       258 -2.066254E-15 -4.829566E-03  6.782819E-04
       259  2.381077E-05 -4.835509E-03  6.782807E-04
       260 -1.848782E-15 -4.799812E-03  1.017496E-03
       261 -2.248608E-15 -5.531822E-03  7.258992E-04

 stresses (elem, integ.pnt.,sxx,syy,szz,sxy,sxz,syz) for set EALL and time  0.1000000E+01

         1   1 -2.241067E+00 -2.317261E+00 -1.738849E+00 -1.108321E+00 -1.428413E+00 -6.017190E+00
         1   2 -1.467752E+00 -1.622699E+00 -2.202684E-01  3.737997E-01 -7.426152E-02 -3.504758E+00
         1   3 -1.014232E+01 -1.312052E+01 -1.862084E+00 -1.131036E+00 -5.064179E+00 -4.046536E+00
         1   4 -8.946126E+00 -1.193254E+01  8.130462E-01  3.670001E-01 -8.060413E-01 -1.458617E+00
         1   5  2.427025E+00  2.691680E+00  3.000949E+00 -5.804488E-01  1.128828E+00  2.096017E+00
         1   6  2.161266E+00  2.117773E+00  1.328380E+00  4.771310E-03  5.213551E-01  1.966339E+00
         1   7  2.504519E+00  1.831011E+00 -6.555540E-01 -6.723384E-01  2.303660E+00  1.848972E+00
         1   8  1.099998E+00  3.816053E-01 -4.351437E+00 -2.772365E-02  8.370526E-01  1.974306E+00
         2   1 -1.467752E+00 -1.622699E+00 -2.202684E-01 -3.737997E-01  7.426152E-02 -3.504758E+00
         2   2 -2.241067E+00 -2.317261E+00 -1.738849E+00  1.108321E+00  1.428413E+00 -6.017190E+00
         2   3 -8.946126E+00 -1.193254E+01  8.130462E-01 -3.670001E-01  8.060413E-01 -1.458617E+00
         2   4 -1.014232E+01 -1.312052E+01 -1.862084E+00  1.131036E+00  5.064179E+00 -4.046536E+00
         2   5  2.161266E+00  2.117773E+00  1.328380E+00 -4.771310E-03 -5.213551E-01  1.966339E+00
         2   6  2.427025E+00  2.691680E+00  3.000949E+00  5.804488E-01 -1.128828E+00  2.096017E+00
         2   7  1.099998E+00  3.816053E-01 -4.351437E+00  2.772365E-02 -8.370526E-01  1.974306E+00
         2   8  2.504519E+00  1.831011E+00 -6.555540E-01  6.723384E-01 -2.303660E+00  1.848972E+00
         3   1 -1.071880E+01 -7.609455E+00  1.831976E+00 -1.199508E+00 -7.737948E+00 -1.822744E+00
         3   2 -9.260517E+00 -6.274108E+00  5.337420E+00  3.339787E-01 -1.341783E+00  6.892069E-01
         3   3 -2.117597E+01 -2.109977E+01 -4.351401E+00 -1.244075E+00 -1.145205E+01  6.863268E+00
         3   4 -1.926222E+01 -1.923842E+01  1.901604E-01  3.053271E-01 -2.149531E+00  9.297369E+00
         3   5  4.982285E+00  5.528121E+00  8.112373E-01 -3.934377E-01  3.374284E+00 -2.365247E-01
         3   6  3.040730E+00  3.759123E+00 -3.966823E+00  7.492145E-02  1.200591E+00 -6.333801E-02
         3   7  7.697087E+00  7.432433E+00  5.005944E+00 -2.440818E-01  4.841354E+00 -3.874166E+00
         3   8  5.197867E+00  5.369032E+00 -1.172697E+00  2.836720E-01  1.564141E+00 -3.711605E+00
         4   1 -9.260517E+00 -6.274108E+00  5.337420E+00 -3.339787E-01  1.341783E+00  6.892069E-01
         4   2 -1.071880E+01 -7.609455E+00  1.831976E+00  1.199508E+00  7.737948E+00 -1.822744E+00
         4   3 -1.926222E+01 -1.923842E+01  1.901604E-01 -3.053271E-01  2.149531E+00  9.297369E+00
         4   4 -2.117597E+01 -2.109977E+01 -4.351401E+00  1.244075E+00  1.145205E+01  6.863268E+00
         4   5  3.040730E+00  3.759123E+00 -3.966823E+00 -7.492145E-02 -1.200591E+00 -6.333801E-02
         4   6  4.982285E+00  5.528121E+00  8.112373E-01  3.934377E-01 -3.374284E+00 -2.365247E-01
         4   7  5.197867E+00  5.369032E+00 -1.172697E+00 -2.836720E-01 -1.564141E+00 -3.711605E+00
         4   8  7.697087E+00  7.432433E+00  5.005944E+00  2.440818E-01 -4.841354E+00 -3.874166E+00
         5   1 -1.696968E+00 -2.453599E+00 -1.476289E+00  6.352658E-01 -4.318864E-01 -3.295460E-01
         5   2 -9.870197E-01 -2.053303E+00 -7.504830E-01 -3.881589E-01 -1.612185E-01 -3.467787E-01
         5   3 -2.925238E-01  1.199765E+00  1.145573E+00  5.347550E-01 -8.577902E-01 -1.472403E+00
         5   4  4.819901E-01  1.918447E+00  2.642594E+00 -4.325290E-01 -4.989173E-01 -1.268692E+00
         5   5  3.192301E-01  1.041450E-01  5.236786E-01 -4.246146E-02  1.525987E-01 -4.066712E-02
         5   6  1.791557E-01 -5.449890E-02  2.994943E-01  1.553956E-02  5.404857E-02 -5.473919E-02
         5   7  6.843349E-02 -3.131492E-01 -4.020408E-01 -6.445089E-02  2.129602E-01  5.891972E-01
         5   8 -2.143975E-01 -5.792502E-01 -8.388982E-01 -2.679100E-03  9.406541E-02  5.981070E-01
         6   1 -9.870197E-01 -2.053303E+00 -7.504830E-01  3.881589E-01  1.612185E-01 -3.467787E-01
         6   2 -1.696968E+00 -2.453599E+00 -1.476289E+00 -6.352658E-01  4.318864E-01 -3.295460E-01
         6   3  4.819901E-01  1.918447E+00  2.642594E+00  4.325290E-01  4.989173E-01 -1.268692E+00
         6   4 -2.925238E-01  1.199765E+00  1.145573E+00 -5.347550E-01  8.577902E-01 -1.472403E+00
         6   5  1.791557E-01 -5.449890E-02  2.994943E-01 -1.553956E-02 -5.404857E-02 -5.473919E-02
         6   6  3.192301E-01  1.041450E-01  5.236786E-01  4.246146E-02 -1.525987E-01 -4.066712E-02
         6   7 -2.143975E-01 -5.792502E-01 -8.388982E-01  2.679100E-03 -9.406541E-02  5.981070E-01
         6   8  6.843349E-02 -3.131492E-01 -4.020408E-01  6.445089E-02 -2.129602E-01  5.891972E-01
         7   1 -2.986022E+00 -4.372811E+00 -1.127559E+00  5.699021E-01 -1.177311E+00 -2.471450E-01
         7   2 -2.254140E+00 -3.690597E+00  6.499159E-01 -4.321034E-01 -6.533573E-01 -1.164170E-01
         7   3 -3.310758E+00 -2.554127E+00 -1.852248E+00  5.928530E-01 -1.990319E+00  2.092659E+00
         7   4 -2.186026E+00 -1.225243E+00  7.684968E-01 -3.530118E-01 -1.064040E+00  1.688322E+00
         7   5  9.154580E-01  1.252566E+00  3.661745E-01 -1.369061E-01  4.130731E-01  2.546396E-01
         7   6  4.270316E-01  7.918843E-01 -4.657550E-01 -3.438727E-02  1.686954E-01  3.353462E-01
         7   7  1.431463E+00  1.646548E+00  8.527074E-01 -1.632053E-01  8.078455E-01 -1.001111E+00
         7   8  7.602606E-01  1.038390E+00 -3.353607E-01 -5.691568E-02  2.805090E-01 -6.807725E-01
         8   1 -2.254140E+00 -3.690597E+00  6.499159E-01  4.321034E-01  6.533573E-01 -1.164170E-01
         8   2 -2.986022E+00 -4.372811E+00 -1.127559E+00 -5.699021E-01  1.177311E+00 -2.471450E-01
         8   3 -2.186026E+00 -1.225243E+00  7.684968E-01  3.530118E-01  1.064040E+00  1.688322E+00
         8   4 -3.310758E+00 -2.554127E+00 -1.852248E+00 -5.928530E-01  1.990319E+00  2.092659E+00
         8   5  4.270316E-01  7.918843E-01 -4.657550E-01  3.438727E-02 -1.686954E-01  3.353462E-01
         8   6  9.154580E-01  1.252566E+00  3.661745E-01  1.369061E-01 -4.130731E-01  2.546396E-01
         8   7  7.602606E-01  1.038390E+00 -3.353607E-01  5.691568E-02 -2.805090E-01 -6.807725E-01
         8   8  1.431463E+00  1.646548E+00  8.527074E-01  1.632053E-01 -8.078455E-01 -1.001111E+00
         9   1  1.089669E-01  5.771128E-01 -1.876436E-01 -1.390000E-01 -6.710080E-02  8.512138E-03
         9   2  2.741722E-02  6.113340E-01 -7.486828E-02  7.660088E-02 -3.989721E-02  5.852651E-02
         9   3 -4.459890E-02 -1.158214E-01  7.070964E-02 -1.092420E-01 -6.007912E-02 -3.068659E-01
         9   4 -1.129085E-01 -9.907547E-02  1.759997E-01  9.546411E-02 -3.575775E-02 -2.748936E-01
         9   5  4.324026E-03 -1.715248E-01  1.049739E-01  1.327720E-02  2.012824E-02 -9.255827E-02
         9   6 -2.797729E-02 -1.966245E-01  3.128435E-02  9.062758E-03  1.127214E-02 -1.119629E-01
         9   7 -1.044896E-01 -2.850708E-01 -1.053757E-01  1.363472E-02 -8.546574E-03  1.963226E-01
         9   8 -1.235369E-01 -2.894665E-01 -1.202427E-01  1.082855E-02  2.167996E-03  1.510734E-01
        10   1  2.741722E-02  6.113340E-01 -7.486828E-02 -7.660088E-02  3.989721E-02  5.852651E-02
        10   2  1.089669E-01  5.771128E-01 -1.876436E-01  1.390000E-01  6.710080E-02  8.512138E-03
        10   3 -1.129085E-01 -9.907547E-02  1.759997E-01 -9.546411E-02  3.575775E-02 -2.748936E-01
        10   4 -4.459890E-02 -1.158214E-01  7.070964E-02  1.092420E-01  6.007912E-02 -3.068659E-01
        10   5 -2.797729E-02 -1.966245E-01  3.128435E-02 -9.062758E-03 -1.127214E-02 -1.119629E-01
        10   6  4.324026E-03 -1.715248E-01  1.049739E-01 -1.327720E-02 -2.012824E-02 -9.255827E-02
        10   7 -1.235369E-01 -2.894665E-01 -1.202427E-01 -1.082855E-02 -2.167996E-03  1.510734E-01
        10   8 -1.044896E-01 -2.850708E-01 -1.053757E-01 -1.363472E-02  8.546574E-03  1.963226E-01
        11   1 -2.579301E-01 -4.704913E-01 -1.284524E-02 -1.360685E-02 -1.770996E-01 -1.337103E-01
        11   2 -1.861165E-01 -1.999496E-01  3.027281E-01  1.385289E-01 -7.429933E-02 -1.648365E-01
        11   3 -7.422667E-01 -1.210413E+00 -4.068129E-01  3.099504E-02 -4.419495E-01  5.175624E-01
        11   4 -6.137300E-01 -9.138629E-01  1.327327E-01  1.722360E-01 -1.332584E-01  2.957052E-01
        11   5  1.617237E-01  3.806843E-01  4.922839E-02 -3.922586E-02  2.549399E-02  1.269867E-01
        11   6  7.812138E-02  2.440509E-01 -3.071013E-02 -1.202325E-02  1.328012E-02  1.356252E-01
        11   7  2.808227E-01  4.566716E-01  1.582737E-01 -7.240869E-02  1.638898E-01 -2.765763E-01
        11   8  1.235908E-01  2.538586E-01 -8.743170E-02 -4.379782E-02  5.806372E-02 -1.289104E-01
        12   1 -1.861165E-01 -1.999496E-01  3.027281E-01 -1.385289E-01  7.429933E-02 -1.648365E-01
        12   2 -2.579301E-01 -4.704913E-01 -1.284524E-02  1.360685E-02  1.770996E-01 -1.337103E-01
        12   3 -6.137300E-01 -9.138629E-01  1.327327E-01 -1.722360E-01  1.332584E-01  2.957052E-01
        12   4 -7.422667E-01 -1.210413E+00 -4.068129E-01 -3.099504E-02  4.419495E-01  5.175624E-01
        12   5  7.812138E-02  2.440509E-01 -3.071013E-02  1.202325E-02 -1.328012E-02  1.356252E-01
        12   6  1.617237E-01  3.806843E-01  4.922839E-02  3.922586E-02 -2.549399E-02  1.269867E-01
        12   7  1.235908E-01  2.538586E-01 -8.743170E-02  4.379782E-02 -5.806372E-02 -1.289104E-01
        12   8  2.808227E-01  4.566716E-01  1.582737E-01  7.240869E-02 -1.638898E-01 -2.765763E-01
        13   1 -3.546627E-02  1.743825E-02 -6.337267E-02  2.117112E-02 -2.799546E-03  1.003906E-01
        13   2  1.170541E-02  3.643241E-02 -2.775314E-02 -3.232147E-02 -1.307210E-03  1.083027E-01
        13   3  1.250600E-01  3.001179E-01  1.320658E-01  1.134029E-02  2.059109E-02 -1.541578E-01
        13   4  1.296248E-01  2.925070E-01  1.071182E-01 -3.776743E-02 -5.584451E-04 -1.127983E-01
        13   5 -1.585211E-02 -7.305972E-02  2.107264E-02  6.630812E-03 -2.006673E-03 -5.333847E-02
        13   6 -2.007523E-02 -7.355085E-02  1.016530E-02  4.083692E-03 -4.987335E-04 -5.717563E-02
        13   7 -5.810263E-02 -1.126560E-01 -6.359795E-02  8.364243E-03 -1.589215E-02  7.303038E-02
        13   8 -4.451488E-02 -9.413574E-02 -3.045070E-02  6.031245E-03 -5.858591E-03  5.056613E-02
        14   1  1.170541E-02  3.643241E-02 -2.775314E-02  3.232147E-02  1.307210E-03  1.083027E-01
        14   2 -3.546627E-02  1.743825E-02 -6.337267E-02 -2.117112E-02  2.799546E-03  1.003906E-01
        14   3  1.296248E-01  2.925070E-01  1.071182E-01  3.776743E-02  5.584451E-04 -1.127983E-01
        14   4  1.250600E-01  3.001179E-01  1.320658E-01 -1.134029E-02 -2.059109E-02 -1.541578E-01
        14   5 -2.007523E-02 -7.355085E-02  1.016530E-02 -4.083692E-03  4.987335E-04 -5.717563E-02
        14   6 -1.585211E-02 -7.305972E-02  2.107264E-02 -6.630812E-03  2.006673E-03 -5.333847E-02
        14   7 -4.451488E-02 -9.413574E-02 -3.045070E-02 -6.031245E-03  5.858591E-03  5.056613E-02
        14   8 -5.810263E-02 -1.126560E-01 -6.359795E-02 -8.364243E-03  1.589215E-02  7.303038E-02
        15   1 -1.384613E-01 -3.362128E-01 -8.910607E-02  5.071686E-02  4.537761E-03 -1.045750E-01
        15   2 -1.059428E-01 -2.688250E-01 -7.621228E-02 -2.231143E-02 -9.769955E-03 -1.024699E-01
        15   3 -1.353515E-01 -1.882561E-01 -5.345258E-02  7.569853E-02 -7.894377E-02  1.821339E-01
        15   4 -4.780032E-02 -4.983371E-02  7.071283E-02  7.055111E-03 -4.827554E-02  8.317387E-02
        15   5  5.340168E-02  1.291050E-01  3.937700E-02 -1.323829E-02 -2.704162E-03  6.071261E-02
        15   6  3.740343E-02  8.702429E-02  3.817640E-02 -2.978102E-03 -1.935630E-03  5.836035E-02
        15   7  7.736342E-02  1.345710E-01  1.964355E-02 -2.799316E-02  4.224425E-02 -9.357605E-02
        15   8  3.652426E-02  6.884991E-02 -3.438625E-02 -1.751884E-02  1.281650E-02 -3.857932E-02
        16   1 -1.059428E-01 -2.688250E-01 -7.621228E-02  2.231143E-02  9.769955E-03 -1.024699E-01
        16   2 -1.384613E-01 -3.362128E-01 -8.910607E-02 -5.071686E-02 -4.537761E-03 -1.045750E-01
        16   3 -4.780032E-02 -4.983371E-02  7.071283E-02 -7.055111E-03  4.827554E-02  8.317387E-02
        16   4 -1.353515E-01 -1.882561E-01 -5.345258E-02 -7.569853E-02  7.894377E-02  1.821339E-01
        16   5  3.740343E-02  8.702429E-02  3.817640E-02  2.978102E-03  1.935630E-03  5.836035E-02
        16   6  5.340168E-02  1.291050E-01  3.937700E-02  1.323829E-02  2.704162E-03  6.071261E-02
        16   7  3.652426E-02  6.884991E-02 -3.438625E-02  1.751884E-02 -1.281650E-02 -3.857932E-02
        16   8  7.736342E-02  1.345710E-01  1.964355E-02  2.799316E-02 -4.224425E-02 -9.357605E-02
        17   1  2.733759E-02  8.703131E-02 -9.112846E-03 -1.301211E-02  1.596763E-03  2.574531E-02
        17   2  1.878993E-02  8.082282E-02 -1.499182E-03  4.050578E-03 -9.137525E-04  2.801856E-02
        17   3  3.119351E-02  5.005154E-02  2.684563E-02 -1.313668E-02  9.816754E-03 -3.881773E-02
        17   4  1.238634E-02  3.060187E-02  2.837505E-03  3.003890E-03  4.867198E-03 -2.296122E-02
        17   5 -9.229174E-03 -3.687338E-02  6.420496E-03  1.524444E-03 -1.653879E-03 -2.172492E-02
        17   6 -9.617754E-03 -3.327143E-02  4.799771E-04  4.454172E-04  2.075186E-04 -2.081545E-02
        17   7 -2.241937E-02 -4.867442E-02 -1.631101E-02  3.442502E-03 -5.609422E-03  2.782295E-02
        17   8 -1.530770E-02 -3.717847E-02 -3.889987E-03  2.507844E-03 -1.985889E-03  1.706882E-02
        18   1  1.878993E-02  8.082282E-02 -1.499182E-03 -4.050578E-03  9.137525E-04  2.801856E-02
        18   2  2.733759E-02  8.703131E-02 -9.112846E-03  1.301211E-02 -1.596763E-03  2.574531E-02
        18   3  1.238634E-02  3.060187E-02  2.837505E-03 -3.003890E-03 -4.867198E-03 -2.296122E-02
        18   4  3.119351E-02  5.005154E-02  2.684563E-02  1.313668E-02 -9.816754E-03 -3.881773E-02
        18   5 -9.617754E-03 -3.327143E-02  4.799771E-04 -4.454172E-04 -2.075186E-04 -2.081545E-02
        18   6 -9.229174E-03 -3.687338E-02  6.420496E-03 -1.524444E-03  1.653879E-03 -2.172492E-02
        18   7 -1.530770E-02 -3.717847E-02 -3.889987E-03 -2.507844E-03  1.985889E-03  1.706882E-02
        18   8 -2.241937E-02 -4.867442E-02 -1.631101E-02 -3.442502E-03  5.609422E-03  2.782295E-02
        19   1 -2.121786E-02 -6.695597E-02 -1.126774E-02  1.522099E-03  3.135509E-04 -3.255787E-02
        19   2 -1.703207E-02 -3.524761E-02 -1.115236E-02  9.643303E-03  2.716437E-03 -3.054486E-02
        19   3 -4.877883E-02 -1.084726E-01 -1.372808E-02  1.151028E-02 -2.908099E-02  5.322955E-02
        19   4 -3.569436E-02 -7.084718E-02  1.707707E-02  1.870936E-02 -5.346104E-03  1.788826E-02
        19   5  1.588219E-02  4.963732E-02  7.179046E-03 -3.235921E-03 -2.225714E-03  2.354663E-02
        19   6  1.108420E-02  3.295496E-02  8.957656E-03 -2.961268E-04 -1.201656E-03  2.025637E-02
        19   7  2.348596E-02  5.113017E-02  6.775754E-03 -9.317169E-03  1.310306E-02 -3.317410E-02
        19   8  1.058066E-02  2.673425E-02 -9.611936E-03 -6.233006E-03  4.068804E-03 -1.298031E-02
        20   1 -1.703207E-02 -3.524761E-02 -1.115236E-02 -9.643303E-03 -2.716437E-03 -3.054486E-02
        20   2 -2.121786E-02 -6.695597E-02 -1.126774E-02 -1.522099E-03 -3.135509E-04 -3.255787E-02
        20   3 -3.569436E-02 -7.084718E-02  1.707707E-02 -1.870936E-02  5.346104E-03  1.788826E-02
        20   4 -4.877883E-02 -1.084726E-01 -1.372808E-02 -1.151028E-02  2.908099E-02  5.322955E-02
        20   5  1.108420E-02  3.295496E-02  8.957656E-03  2.961268E-04  1.201656E-03  2.025637E-02
        20   6  1.588219E-02  4.963732E-02  7.179046E-03  3.235921E-03  2.225714E-03  2.354663E-02
        20   7  1.058066E-02  2.673425E-02 -9.611936E-03  6.233006E-03 -4.068804E-03 -1.298031E-02
        20   8  2.348596E-02  5.113017E-02  6.775754E-03  9.317169E-03 -1.310306E-02 -3.317410E-02
        21   1  2.906792E-03  1.653227E-02 -4.741169E-03  1.811148E-03  1.808473E-03  1.707907E-02