
 displacements (vx,vy,vz) for set NALL and time  0.1000000E+01

         1  4.065111E-06  0.000000E+00  0.000000E+00
         2  4.065111E-06  1.000000E-01  5.479808E+02
         3  4.065111E-06  0.000000E+00  0.000000E+00
         4  4.065111E-06  9.907920E-02  5.499439E+02
         5  4.065112E-06  0.000000E+00  0.000000E+00
         6  4.065112E-06  9.906507E-02  5.499439E+02
         7  4.065111E-06  0.000000E+00  0.000000E+00
         8  4.065111E-06  9.849959E-02  5.479176E+02
         9  4.065111E-06  0.000000E+00  0.000000E+00
        10  4.065111E-06  9.746779E-02  5.478723E+02
        11  4.065111E-06  0.000000E+00  0.000000E+00
        12  4.065111E-06  9.610909E-02  5.478104E+02
        13  4.065111E-06  0.000000E+00  0.000000E+00
        14  4.065111E-06  9.509392E-02  5.477624E+02
        15  4.065111E-06  0.000000E+00  0.000000E+00
        16  4.065111E-06  9.492657E-02  5.477543E+02
        17  4.065111E-06  0.000000E+00  0.000000E+00
        18  4.065111E-06  9.467755E-02  5.477422E+02
        19  4.065111E-06  0.000000E+00  0.000000E+00
        20  4.065111E-06  2.366909E-02  4.651737E+02
        21  4.065112E-06  0.000000E+00  0.000000E+00
        22  4.065112E-06  1.000000E-02  5.468087E+02
        23  4.065112E-06  0.000000E+00  0.000000E+00

 temperatures for set NALL and time  0.1000000E+01

         1  0.000000E+00
         2  5.500000E+02
         3  0.000000E+00
         4  5.500000E+02
         5  0.000000E+00
         6  5.500000E+02
         7  0.000000E+00
         8  5.500000E+02
         9  0.000000E+00
        10  5.500000E+02
        11  0.000000E+00
        12  5.500000E+02
        13  0.000000E+00
        14  5.500000E+02
        15  0.000000E+00
        16  5.500000E+02
        17  0.000000E+00
        18  5.500000E+02
        19  0.000000E+00
        20  5.500000E+02
        21  0.000000E+00
        22  5.500000E+02
        23  0.000000E+00
