
 displacements (vx,vy,vz) for set NS_ALL and time  0.1000000E+01

        10  0.000000E+00  1.659210E-22  0.000000E+00
        20 -4.353885E-16  1.045381E-02  7.225717E-13
        30 -9.502490E-16  4.186560E-02  2.939876E-12
         4 -9.543148E-16  9.521026E-02  6.623068E-12
         5 -1.113367E-15  1.713995E-01  1.163400E-11

 displacements (vx,vy,vz) for set NS_ALL and time  0.2000000E+01

        10  1.022326E-17  2.250464E-04  3.473773E-15
        20  1.013729E-17  5.747208E-05  1.075278E-15
        30  0.000000E+00  1.443970E-24  0.000000E+00
         4  7.583994E-17  1.057745E-02  3.356689E-13
         5  1.466926E-16  4.237195E-02  1.307789E-12
