
 displacements (vx,vy,vz) for set NS_ALL and time  0.1000000E+01

        10  0.000000E+00  1.659210E-22  0.000000E+00
        20 -4.353885E-16  1.045381E-02  7.225717E-13
        30 -9.502490E-16  4.186560E-02  2.939876E-12
         4 -9.543148E-16  9.521026E-02  6.623068E-12
         5 -1.113367E-15  1.713995E-01  1.163400E-11

 displacements (vx,vy,vz) for set NS_ALL and time  0.2000000E+01

        10  0.000000E+00  3.749115E-23  0.000000E+00
        20 -2.968173E-16  5.244013E-04  6.888523E-13
        30 -5.971989E-16  2.120797E-03  2.742703E-12
         4 -6.662693E-16  1.513468E-02  5.843196E-12
         5 -7.891908E-16  4.992431E-02  9.650930E-12
