
 displacements (vx,vy,vz) for set NS_ALL and time  0.1000000E+01

        10  1.496520E-11  4.492535E-13 -8.470329E-22
        20 -1.739230E-04  7.209575E-03 -8.219459E-06
        30 -1.383826E-03  2.878067E-02 -3.304954E-05
         4 -4.725069E-03  6.492439E-02 -7.746361E-05
         5 -1.130234E-02  1.156122E-01 -1.442734E-04

 displacements (vx,vy,vz) for set NS_ALL and time  0.2000000E+01

        10  3.046334E-12  1.205098E-12  0.000000E+00
        20 -3.433698E-06  3.855348E-04 -6.448035E-06
        30  7.227908E-06  1.557172E-03 -2.586210E-05
         4 -2.436339E-04  1.034470E-02 -6.614646E-05
         5 -1.626901E-03  3.347822E-02 -1.352909E-04
