
 displacements (vx,vy,vz) for set NALL and time  0.1000000E+01

         1  5.033000E-01  0.000000E+00  0.000000E+00
         2  5.033000E-01  5.443000E+05  7.476340E+02
         3  5.033000E-01  0.000000E+00  0.000000E+00
         4  5.033000E-01  5.558677E+05  7.046222E+02
         5  5.033000E-01  0.000000E+00  0.000000E+00

 temperatures for set NALL and time  0.1000000E+01

         1  0.000000E+00
         2  8.190000E+02
         3  0.000000E+00
         4  8.257060E+02
         5  0.000000E+00
