
 displacements (vx,vy,vz) for set NALL and time  0.1000000E+01

         1  5.033000E-02  0.000000E+00  0.000000E+00
         2  5.033000E-02  1.067000E+06  9.940000E+02
         3  5.033000E-02  0.000000E+00  0.000000E+00
         4  5.033000E-02  5.443660E+05  8.190000E+02
         5  5.033000E-02  0.000000E+00  0.000000E+00

 temperatures for set NALL and time  0.1000000E+01

         1  0.000000E+00
         2  9.940000E+02
         3  0.000000E+00
         4  8.190000E+02
         5  0.000000E+00
