    1C
    1UModel: beam     Date: 10-Mar-1998                                 
    1UUSER                                                              
    1UDATE              24.november.2019                                
    1UTIME              19:38:26                                        
    1UHOST                                                              
    1UPGM               CalculiX                                        
    1UVERSION           Version 2.16                             
    1UCOMPILETIME       So 24. Nov 18:30:58 CET 2019                    
    1UDIR                                                               
    1UDBN                                                               
    1UMAT    1SINGLE_CRYSTAL                                            
    2C                            20                                     1
 -1         2 1.00000E+00 0.00000E+00 0.00000E+00
 -1        10 5.00000E-01 0.00000E+00 0.00000E+00
 -1        11 7.50000E-01 0.00000E+00 0.00000E+00
 -1        12 1.00000E+00 2.50000E-01 0.00000E+00
 -1        13 1.00000E+00 5.00000E-01 0.00000E+00
 -1        33 1.00000E+00 0.00000E+00 5.00000E-01
 -1        34 1.00000E+00 0.00000E+00 1.00000E+00
 -1        93 5.00000E-01 2.50000E-01 0.00000E+00
 -1        95 5.00000E-01 5.00000E-01 0.00000E+00
 -1        96 7.50000E-01 5.00000E-01 0.00000E+00
 -1       103 5.00000E-01 0.00000E+00 5.00000E-01
 -1       105 5.00000E-01 0.00000E+00 1.00000E+00
 -1       106 7.50000E-01 0.00000E+00 1.00000E+00
 -1       132 1.00000E+00 5.00000E-01 5.00000E-01
 -1       133 1.00000E+00 2.50000E-01 1.00000E+00
 -1       134 1.00000E+00 5.00000E-01 1.00000E+00
 -1       219 5.00000E-01 5.00000E-01 5.00000E-01
 -1       220 5.00000E-01 2.50000E-01 1.00000E+00
 -1       222 5.00000E-01 5.00000E-01 1.00000E+00
 -1       223 7.50000E-01 5.00000E-01 1.00000E+00
 -3
    3C                             1                                     1
 -1         1    4    0    1
 -2        10         2        13        95       105        34       134       222        11        12
 -2        96        93       103        33       132       219       106       133       223       220
 -3
    1PSTEP                         1           1           1          
  100CL  101 7.20000E-01          20                     0    1           1
 -4  DISP        4    1
 -5  D1          1    2    1    0
 -5  D2          1    2    2    0
 -5  D3          1    2    3    0
 -5  ALL         1    2    0    0    1ALL
 -1         2 0.00000E+00 0.00000E+00 0.00000E+00
 -1        10 2.45935E-05 0.00000E+00 0.00000E+00
 -1        11 1.22969E-05-1.97281E-09 0.00000E+00
 -1        12 8.54020E-06 5.08766E-06 0.00000E+00
 -1        13 1.70794E-05 1.01796E-05 0.00000E+00
 -1        33 4.02597E-05 5.12620E-05 5.99954E-05
 -1        34 8.05283E-05 1.02524E-04 1.20000E-04
 -1        93 3.31407E-05 5.08503E-06 0.00000E+00
 -1        95 4.16877E-05 1.01732E-05 0.00000E+00
 -1        96 2.93846E-05 1.01740E-05 0.00000E+00
 -1       103 6.48604E-05 5.12578E-05 5.99797E-05
 -1       105 1.05137E-04 1.02517E-04 1.20000E-04
 -1       106 9.28314E-05 1.02523E-04 1.20000E-04
 -1       132 5.73556E-05 6.14392E-05 6.00203E-05
 -1       133 8.90754E-05 1.07612E-04 1.20000E-04
 -1       134 9.76225E-05 1.12697E-04 1.20000E-04
 -1       219 8.19563E-05 6.14350E-05 6.00046E-05
 -1       220 1.13676E-04 1.07609E-04 1.20000E-04
 -1       222 1.22216E-04 1.12697E-04 1.20000E-04
 -1       223 1.09919E-04 1.12699E-04 1.20000E-04
 -3
    1PSTEP                         2           1           1          
  100CL  101 7.20000E-01          20                     0    1           1
 -4  STRESS      6    1
 -5  SXX         1    4    1    1
 -5  SYY         1    4    2    2
 -5  SZZ         1    4    3    3
 -5  SXY         1    4    1    2
 -5  SYZ         1    4    2    3
 -5  SZX         1    4    3    1
 -1         2-2.10862E-03-1.98261E-03 2.48713E+01-1.05100E-03-1.01959E-03-3.83128E-03
 -1        10-2.08967E-03-2.02042E-03 2.48526E+01-8.47009E-04 1.11810E-03 1.81159E-03
 -1        11-2.27859E-03-1.86609E-03 2.48640E+01-8.02230E-04 2.87993E-04-1.25727E-03
 -1        12-1.46238E-03-1.90277E-03 2.48863E+01-1.33133E-03-3.04534E-03-4.36367E-03
 -1        13-1.08636E-03-2.39410E-03 2.48971E+01-9.19807E-04-5.74225E-03-4.78018E-03
 -1        33 8.08930E-04 7.51806E-04 2.48732E+01 6.13779E-04 6.89455E-04 6.42617E-04
 -1        34-1.30255E-03-1.87826E-03 2.48798E+01-9.32390E-04-2.74249E-03-2.37632E-03
 -1        93-1.56100E-03-1.66375E-03 2.48683E+01-1.23563E-03-4.76612E-04-3.40309E-04
 -1        95-1.30255E-03-1.87826E-03 2.48798E+01-9.32390E-04-2.74249E-03-2.37632E-03
 -1        96-1.37389E-03-2.00075E-03 2.48905E+01-7.79326E-04-4.00363E-03-3.82568E-03
 -1       103 9.26501E-04 4.74979E-04 2.48725E+01 7.22063E-04 2.58419E-04 2.26213E-03
 -1       105-1.08636E-03-2.39410E-03 2.48971E+01-9.19807E-04-5.74225E-03-4.78018E-03
 -1       106-1.37389E-03-2.00075E-03 2.48905E+01-7.79326E-04-4.00363E-03-3.82568E-03
 -1       132 9.26501E-04 4.74979E-04 2.48725E+01 7.22063E-04 2.58419E-04 2.26213E-03
 -1       133-1.56100E-03-1.66375E-03 2.48683E+01-1.23563E-03-4.76611E-04-3.40309E-04
 -1       134-2.08967E-03-2.02042E-03 2.48526E+01-8.47009E-04 1.11810E-03 1.81159E-03
 -1       219 8.08930E-04 7.51806E-04 2.48732E+01 6.13779E-04 6.89455E-04 6.42617E-04
 -1       220-1.46238E-03-1.90277E-03 2.48863E+01-1.33133E-03-3.04534E-03-4.36367E-03
 -1       222-2.10862E-03-1.98261E-03 2.48713E+01-1.05100E-03-1.01959E-03-3.83128E-03
 -1       223-2.27859E-03-1.86609E-03 2.48640E+01-8.02230E-04 2.87993E-04-1.25727E-03
 -3
    1PSTEP                         3           1           1          
  100CL  101 7.20000E-01          20                     0    1           1
 -4  SDV        60    1
 -5  SDV1        1    1    0    0
 -5  SDV2        1    1    0    0
 -5  SDV3        1    1    0    0
 -5  SDV4        1    1    0    0
 -5  SDV5        1    1    0    0
 -5  SDV6        1    1    0    0
 -5  SDV7        1    1    0    0
 -5  SDV8        1    1    0    0
 -5  SDV9        1    1    0    0
 -5  SDV10       1    1    0    0
 -5  SDV11       1    1    0    0
 -5  SDV12       1    1    0    0
 -5  SDV13       1    1    0    0
 -5  SDV14       1    1    0    0
 -5  SDV15       1    1    0    0
 -5  SDV16       1    1    0    0
 -5  SDV17       1    1    0    0
 -5  SDV18       1    1    0    0
 -5  SDV19       1    1    0    0
 -5  SDV20       1    1    0    0
 -5  SDV21       1    1    0    0
 -5  SDV22       1    1    0    0
 -5  SDV23       1    1    0    0
 -5  SDV24       1    1    0    0
 -5  SDV25       1    1    0    0
 -5  SDV26       1    1    0    0
 -5  SDV27       1    1    0    0
 -5  SDV28       1    1    0    0
 -5  SDV29       1    1    0    0
 -5  SDV30       1    1    0    0
 -5  SDV31       1    1    0    0
 -5  SDV32       1    1    0    0
 -5  SDV33       1    1    0    0
 -5  SDV34       1    1    0    0
 -5  SDV35       1    1    0    0
 -5  SDV36       1    1    0    0
 -5  SDV37       1    1    0    0
 -5  SDV38       1    1    0    0
 -5  SDV39       1    1    0    0
 -5  SDV40       1    1    0    0
 -5  SDV41       1    1    0    0
 -5  SDV42       1    1    0    0
 -5  SDV43       1    1    0    0
 -5  SDV44       1    1    0    0
 -5  SDV45       1    1    0    0
 -5  SDV46       1    1    0    0
 -5  SDV47       1    1    0    0
 -5  SDV48       1    1    0    0
 -5  SDV49       1    1    0    0
 -5  SDV50       1    1    0    0
 -5  SDV51       1    1    0    0
 -5  SDV52       1    1    0    0
 -5  SDV53       1    1    0    0
 -5  SDV54       1    1    0    0
 -5  SDV55       1    1    0    0
 -5  SDV56       1    1    0    0
 -5  SDV57       1    1    0    0
 -5  SDV58       1    1    0    0
 -5  SDV59       1    1    0    0
 -5  SDV60       1    1    0    0
 -1         2 0.00000E+00 0.00000E+00 0.00000E+00 0.00000E+00 0.00000E+00 0.00000E+00
 -2           0.00000E+00 0.00000E+00 0.00000E+00 0.00000E+00 0.00000E+00 0.00000E+00
 -2           0.00000E+00 0.00000E+00 0.00000E+00 0.00000E+00 0.00000E+00 0.00000E+00
 -2           0.00000E+00 0.00000E+00 0.00000E+00 0.00000E+00 0.00000E+00 0.00000E+00
 -2           0.00000E+00 0.00000E+00 0.00000E+00 0.00000E+00 0.00000E+00 0.00000E+00
 -2           0.00000E+00 0.00000E+00 0.00000E+00 0.00000E+00 0.00000E+00 0.00000E+00
 -2           0.00000E+00 0.00000E+00 0.00000E+00 0.00000E+00 0.00000E+00 0.00000E+00
 -2           0.00000E+00 0.00000E+00 0.00000E+00 0.00000E+00 0.00000E+00 0.00000E+00
 -2           0.00000E+00 0.00000E+00 0.00000E+00 0.00000E+00 0.00000E+00 0.00000E+00
 -2           0.00000E+00 0.00000E+00 0.00000E+00 0.00000E+00 0.00000E+00 0.00000E+00
 -1        10 0.00000E+00 0.00000E+00 0.00000E+00 0.00000E+00 0.00000E+00 0.00000E+00
 -2           0.00000E+00 0.00000E+00 0.00000E+00 0.00000E+00 0.00000E+00 0.00000E+00
 -2           0.00000E+00 0.00000E+00 0.00000E+00 0.00000E+00 0.00000E+00 0.00000E+00
 -2           0.00000E+00 0.00000E+00 0.00000E+00 0.00000E+00 0.00000E+00 0.00000E+00
 -2           0.00000E+00 0.00000E+00 0.00000E+00 0.00000E+00 0.00000E+00 0.00000E+00
 -2           0.00000E+00 0.00000E+00 0.00000E+00 0.00000E+00 0.00000E+00 0.00000E+00
 -2           0.00000E+00 0.00000E+00 0.00000E+00 0.00000E+00 0.00000E+00 0.00000E+00
 -2           0.00000E+00 0.00000E+00 0.00000E+00 0.00000E+00 0.00000E+00 0.00000E+00
 -2           0.00000E+00 0.00000E+00 0.00000E+00 0.00000E+00 0.00000E+00 0.00000E+00
 -2           0.00000E+00 0.00000E+00 0.00000E+00 0.00000E+00 0.00000E+00 0.00000E+00
 -1        11 0.00000E+00 0.00000E+00 0.00000E+00 0.00000E+00 0.00000E+00 0.00000E+00
 -2           0.00000E+00 0.00000E+00 0.00000E+00 0.00000E+00 0.00000E+00 0.00000E+00
 -2           0.00000E+00 0.00000E+00 0.00000E+00 0.00000E+00 0.00000E+00 0.00000E+00
 -2           0.00000E+00 0.00000E+00 0.00000E+00 0.00000E+00 0.00000E+00 0.00000E+00
 -2           0.00000E+00 0.00000E+00 0.00000E+00 0.00000E+00 0.00000E+00 0.00000E+00
 -2           0.00000E+00 0.00000E+00 0.00000E+00 0.00000E+00 0.00000E+00 0.00000E+00
 -2           0.00000E+00 0.00000E+00 0.00000E+00 0.00000E+00 0.00000E+00 0.00000E+00
 -2           0.00000E+00 0.00000E+00 0.00000E+00 0.00000E+00 0.00000E+00 0.00000E+00
 -2           0.00000E+00 0.00000E+00 0.00000E+00 0.00000E+00 0.00000E+00 0.00000E+00
 -2           0.00000E+00 0.00000E+00 0.00000E+00 0.00000E+00 0.00000E+00 0.00000E+00
 -1        12 0.00000E+00 0.00000E+00 0.00000E+00 0.00000E+00 0.00000E+00 0.00000E+00
 -2           0.00000E+00 0.00000E+00 0.00000E+00 0.00000E+00 0.00000E+00 0.00000E+00
 -2           0.00000E+00 0.00000E+00 0.00000E+00 0.00000E+00 0.00000E+00 0.00000E+00
 -2           0.00000E+00 0.00000E+00 0.00000E+00 0.00000E+00 0.00000E+00 0.00000E+00
 -2           0.00000E+00 0.00000E+00 0.00000E+00 0.00000E+00 0.00000E+00 0.00000E+00
 -2           0.00000E+00 0.00000E+00 0.00000E+00 0.00000E+00 0.00000E+00 0.00000E+00
 -2           0.00000E+00 0.00000E+00 0.00000E+00 0.00000E+00 0.00000E+00 0.00000E+00
 -2           0.00000E+00 0.00000E+00 0.00000E+00 0.00000E+00 0.00000E+00 0.00000E+00
 -2           0.00000E+00 0.00000E+00 0.00000E+00 0.00000E+00 0.00000E+00 0.00000E+00
 -2           0.00000E+00 0.00000E+00 0.00000E+00 0.00000E+00 0.00000E+00 0.00000E+00
 -1        13 0.00000E+00 0.00000E+00 0.00000E+00 0.00000E+00 0.00000E+00 0.00000E+00
 -2           0.00000E+00 0.00000E+00 0.00000E+00 0.00000E+00 0.00000E+00 0.00000E+00
 -2           0.00000E+00 0.00000E+00 0.00000E+00 0.00000E+00 0.00000E+00 0.00000E+00
 -2           0.00000E+00 0.00000E+00 0.00000E+00 0.00000E+00 0.00000E+00 0.00000E+00
 -2           0.00000E+00 0.00000E+00 0.00000E+00 0.00000E+00 0.00000E+00 0.00000E+00
 -2           0.00000E+00 0.00000E+00 0.00000E+00 0.00000E+00 0.00000E+00 0.00000E+00
 -2           0.00000E+00 0.00000E+00 0.00000E+00 0.00000E+00 0.00000E+00 0.00000E+00
 -2           0.00000E+00 0.00000E+00 0.00000E+00 0.00000E+00 0.00000E+00 0.00000E+00
 -2           0.00000E+00 0.00000E+00 0.00000E+00 0.00000E+00 0.00000E+00 0.00000E+00
 -2           0.00000E+00 0.00000E+00 0.00000E+00 0.00000E+00 0.00000E+00 0.00000E+00
 -1        33 0.00000E+00 0.00000E+00 0.00000E+00 0.00000E+00 0.00000E+00 0.00000E+00
 -2           0.00000E+00 0.00000E+00 0.00000E+00 0.00000E+00 0.00000E+00 0.00000E+00
 -2           0.00000E+00 0.00000E+00 0.00000E+00 0.00000E+00 0.00000E+00 0.00000E+00
 -2           0.00000E+00 0.00000E+00 0.00000E+00 0.00000E+00 0.00000E+00 0.00000E+00
 -2           0.00000E+00 0.00000E+00 0.00000E+00 0.00000E+00 0.00000E+00 0.00000E+00
 -2           0.00000E+00 0.00000E+00 0.00000E+00 0.00000E+00 0.00000E+00 0.00000E+00
 -2           0.00000E+00 0.00000E+00 0.00000E+00 0.00000E+00 0.00000E+00 0.00000E+00
 -2           0.00000E+00 0.00000E+00 0.00000E+00 0.00000E+00 0.00000E+00 0.00000E+00
 -2           0.00000E+00 0.00000E+00 0.00000E+00 0.00000E+00 0.00000E+00 0.00000E+00
 -2           0.00000E+00 0.00000E+00 0.00000E+00 0.00000E+00 0.00000E+00 0.00000E+00
 -1        34 0.00000E+00 0.00000E+00 0.00000E+00 0.00000E+00 0.00000E+00 0.00000E+00
 -2           0.00000E+00 0.00000E+00 0.00000E+00 0.00000E+00 0.00000E+00 0.00000E+00
 -2           0.00000E+00 0.00000E+00 0.00000E+00 0.00000E+00 0.00000E+00 0.00000E+00
 -2           0.00000E+00 0.00000E+00 0.00000E+00 0.00000E+00 0.00000E+00 0.00000E+00
 -2           0.00000E+00 0.00000E+00 0.00000E+00 0.00000E+00 0.00000E+00 0.00000E+00
 -2           0.00000E+00 0.00000E+00 0.00000E+00 0.00000E+00 0.00000E+00 0.00000E+00
 -2           0.00000E+00 0.00000E+00 0.00000E+00 0.00000E+00 0.00000E+00 0.00000E+00
 -2           0.00000E+00 0.00000E+00 0.00000E+00 0.00000E+00 0.00000E+00 0.00000E+00
 -2           0.00000E+00 0.00000E+00 0.00000E+00 0.00000E+00 0.00000E+00 0.00000E+00
 -2           0.00000E+00 0.00000E+00 0.00000E+00 0.00000E+00 0.00000E+00 0.00000E+00
 -1        93 0.00000E+00 0.00000E+00 0.00000E+00 0.00000E+00 0.00000E+00 0.00000E+00
 -2           0.00000E+00 0.00000E+00 0.00000E+00 0.00000E+00 0.00000E+00 0.00000E+00
 -2           0.00000E+00 0.00000E+00 0.00000E+00 0.00000E+00 0.00000E+00 0.00000E+00
 -2           0.00000E+00 0.00000E+00 0.00000E+00 0.00000E+00 0.00000E+00 0.00000E+00
 -2           0.00000E+00 0.00000E+00 0.00000E+00 0.00000E+00 0.00000E+00 0.00000E+00
 -2           0.00000E+00 0.00000E+00 0.00000E+00 0.00000E+00 0.00000E+00 0.00000E+00
 -2           0.00000E+00 0.00000E+00 0.00000E+00 0.00000E+00 0.00000E+00 0.00000E+00
 -2           0.00000E+00 0.00000E+00 0.00000E+00 0.00000E+00 0.00000E+00 0.00000E+00
 -2           0.00000E+00 0.00000E+00 0.00000E+00 0.00000E+00 0.00000E+00 0.00000E+00
 -2           0.00000E+00 0.00000E+00 0.00000E+00 0.00000E+00 0.00000E+00 0.00000E+00
 -1        95 0.00000E+00 0.00000E+00 0.00000E+00 0.00000E+00 0.00000E+00 0.00000E+00
 -2           0.00000E+00 0.00000E+00 0.00000E+00 0.00000E+00 0.00000E+00 0.00000E+00
 -2           0.00000E+00 0.00000E+00 0.00000E+00 0.00000E+00 0.00000E+00 0.00000E+00
 -2           0.00000E+00 0.00000E+00 0.00000E+00 0.00000E+00 0.00000E+00 0.00000E+00
 -2           0.00000E+00 0.00000E+00 0.00000E+00 0.00000E+00 0.00000E+00 0.00000E+00
 -2           0.00000E+00 0.00000E+00 0.00000E+00 0.00000E+00 0.00000E+00 0.00000E+00
 -2           0.00000E+00 0.00000E+00 0.00000E+00 0.00000E+00 0.00000E+00 0.00000E+00
 -2           0.00000E+00 0.00000E+00 0.00000E+00 0.00000E+00 0.00000E+00 0.00000E+00
 -2           0.00000E+00 0.00000E+00 0.00000E+00 0.00000E+00 0.00000E+00 0.00000E+00
 -2           0.00000E+00 0.00000E+00 0.00000E+00 0.00000E+00 0.00000E+00 0.00000E+00
 -1        96 0.00000E+00 0.00000E+00 0.00000E+00 0.00000E+00 0.00000E+00 0.00000E+00
 -2           0.00000E+00 0.00000E+00 0.00000E+00 0.00000E+00 0.00000E+00 0.00000E+00
 -2           0.00000E+00 0.00000E+00 0.00000E+00 0.00000E+00 0.00000E+00 0.00000E+00
 -2           0.00000E+00 0.00000E+00 0.00000E+00 0.00000E+00 0.00000E+00 0.00000E+00
 -2           0.00000E+00 0.00000E+00 0.00000E+00 0.00000E+00 0.00000E+00 0.00000E+00
 -2           0.00000E+00 0.00000E+00 0.00000E+00 0.00000E+00 0.00000E+00 0.00000E+00
 -2           0.00000E+00 0.00000E+00 0.00000E+00 0.00000E+00 0.00000E+00 0.00000E+00
 -2           0.00000E+00 0.00000E+00 0.00000E+00 0.00000E+00 0.00000E+00 0.00000E+00
 -2           0.00000E+00 0.00000E+00 0.00000E+00 0.00000E+00 0.00000E+00 0.00000E+00
 -2           0.00000E+00 0.00000E+00 0.00000E+00 0.00000E+00 0.00000E+00 0.00000E+00
 -1       103 0.00000E+00 0.00000E+00 0.00000E+00 0.00000E+00 0.00000E+00 0.00000E+00
 -2           0.00000E+00 0.00000E+00 0.00000E+00 0.00000E+00 0.00000E+00 0.00000E+00
 -2           0.00000E+00 0.00000E+00 0.00000E+00 0.00000E+00 0.00000E+00 0.00000E+00
 -2           0.00000E+00 0.00000E+00 0.00000E+00 0.00000E+00 0.00000E+00 0.00000E+00
 -2           0.00000E+00 0.00000E+00 0.00000E+00 0.00000E+00 0.00000E+00 0.00000E+00
 -2           0.00000E+00 0.00000E+00 0.00000E+00 0.00000E+00 0.00000E+00 0.00000E+00
 -2           0.00000E+00 0.00000E+00 0.00000E+00 0.00000E+00 0.00000E+00 0.00000E+00
 -2           0.00000E+00 0.00000E+00 0.00000E+00 0.00000E+00 0.00000E+00 0.00000E+00
 -2           0.00000E+00 0.00000E+00 0.00000E+00 0.00000E+00 0.00000E+00 0.00000E+00
 -2           0.00000E+00 0.00000E+00 0.00000E+00 0.00000E+00 0.00000E+00 0.00000E+00
 -1       105 0.00000E+00 0.00000E+00 0.00000E+00 0.00000E+00 0.00000E+00 0.00000E+00
 -2           0.00000E+00 0.00000E+00 0.00000E+00 0.00000E+00 0.00000E+00 0.00000E+00
 -2           0.00000E+00 0.00000E+00 0.00000E+00 0.00000E+00 0.00000E+00 0.00000E+00
 -2           0.00000E+00 0.00000E+00 0.00000E+00 0.00000E+00 0.00000E+00 0.00000E+00
 -2           0.00000E+00 0.00000E+00 0.00000E+00 0.00000E+00 0.00000E+00 0.00000E+00
 -2           0.00000E+00 0.00000E+00 0.00000E+00 0.00000E+00 0.00000E+00 0.00000E+00
 -2           0.00000E+00 0.00000E+00 0.00000E+00 0.00000E+00 0.00000E+00 0.00000E+00
 -2           0.00000E+00 0.00000E+00 0.00000E+00 0.00000E+00 0.00000E+00 0.00000E+00
 -2           0.00000E+00 0.00000E+00 0.00000E+00 0.00000E+00 0.00000E+00 0.00000E+00
 -2           0.00000E+00 0.00000E+00 0.00000E+00 0.00000E+00 0.00000E+00 0.00000E+00
 -1       106 0.00000E+00 0.00000E+00 0.00000E+00 0.00000E+00 0.00000E+00 0.00000E+00
 -2           0.00000E+00 0.00000E+00 0.00000E+00 0.00000E+00 0.00000E+00 0.00000E+00
 -2           0.00000E+00 0.00000E+00 0.00000E+00 0.00000E+00 0.00000E+00 0.00000E+00
 -2           0.00000E+00 0.00000E+00 0.00000E+00 0.00000E+00 0.00000E+00 0.00000E+00
 -2           0.00000E+00 0.00000E+00 0.00000E+00 0.00000E+00 0.00000E+00 0.00000E+00
 -2           0.00000E+00 0.00000E+00 0.00000E+00 0.00000E+00 0.00000E+00 0.00000E+00
 -2           0.00000E+00 0.00000E+00 0.00000E+00 0.00000E+00 0.00000E+00 0.00000E+00
 -2           0.00000E+00 0.00000E+00 0.00000E+00 0.00000E+00 0.00000E+00 0.00000E+00
 -2           0.00000E+00 0.00000E+00 0.00000E+00 0.00000E+00 0.00000E+00 0.00000E+00
 -2           0.00000E+00 0.00000E+00 0.00000E+00 0.00000E+00 0.00000E+00 0.00000E+00
 -1       132 0.00000E+00 0.00000E+00 0.00000E+00 0.00000E+00 0.00000E+00 0.00000E+00
 -2           0.00000E+00 0.00000E+00 0.00000E+00 0.00000E+00 0.00000E+00 0.00000E+00
 -2           0.00000E+00 0.00000E+00 0.00000E+00 0.00000E+00 0.00000E+00 0.00000E+00
 -2           0.00000E+00 0.00000E+00 0.00000E+00 0.00000E+00 0.00000E+00 0.00000E+00
 -2           0.00000E+00 0.00000E+00 0.00000E+00 0.00000E+00 0.00000E+00 0.00000E+00
 -2           0.00000E+00 0.00000E+00 0.00000E+00 0.00000E+00 0.00000E+00 0.00000E+00
 -2           0.00000E+00 0.00000E+00 0.00000E+00 0.00000E+00 0.00000E+00 0.00000E+00
 -2           0.00000E+00 0.00000E+00 0.00000E+00 0.00000E+00 0.00000E+00 0.00000E+00
 -2           0.00000E+00 0.00000E+00 0.00000E+00 0.00000E+00 0.00000E+00 0.00000E+00
 -2           0.00000E+00 0.00000E+00 0.00000E+00 0.00000E+00 0.00000E+00 0.00000E+00
 -1       133 0.00000E+00 0.00000E+00 0.00000E+00 0.00000E+00 0.00000E+00 0.00000E+00
 -2           0.00000E+00 0.00000E+00 0.00000E+00 0.00000E+00 0.00000E+00 0.00000E+00
 -2           0.00000E+00 0.00000E+00 0.00000E+00 0.00000E+00 0.00000E+00 0.00000E+00
 -2           0.00000E+00 0.00000E+00 0.00000E+00 0.00000E+00 0.00000E+00 0.00000E+00
 -2           0.00000E+00 0.00000E+00 0.00000E+00 0.00000E+00 0.00000E+00 0.00000E+00
 -2           0.00000E+00 0.00000E+00 0.00000E+00 0.00000E+00 0.00000E+00 0.00000E+00
 -2           0.00000E+00 0.00000E+00 0.00000E+00 0.00000E+00 0.00000E+00 0.00000E+00
 -2           0.00000E+00 0.00000E+00 0.00000E+00 0.00000E+00 0.00000E+00 0.00000E+00
 -2           0.00000E+00 0.00000E+00 0.00000E+00 0.00000E+00 0.00000E+00 0.00000E+00
 -2           0.00000E+00 0.00000E+00 0.00000E+00 0.00000E+00 0.00000E+00 0.00000E+00
 -1       134 0.00000E+00 0.00000E+00 0.00000E+00 0.00000E+00 0.00000E+00 0.00000E+00
 -2           0.00000E+00 0.00000E+00 0.00000E+00 0.00000E+00 0.00000E+00 0.00000E+00
 -2           0.00000E+00 0.00000E+00 0.00000E+00 0.00000E+00 0.00000E+00 0.00000E+00
 -2           0.00000E+00 0.00000E+00 0.00000E+00 0.00000E+00 0.00000E+00 0.00000E+00
 -2           0.00000E+00 0.00000E+00 0.00000E+00 0.00000E+00 0.00000E+00 0.00000E+00
 -2           0.00000E+00 0.00000E+00 0.00000E+00 0.00000E+00 0.00000E+00 0.00000E+00
 -2           0.00000E+00 0.00000E+00 0.00000E+00 0.00000E+00 0.00000E+00 0.00000E+00
 -2           0.00000E+00 0.00000E+00 0.00000E+00 0.00000E+00 0.00000E+00 0.00000E+00
 -2           0.00000E+00 0.00000E+00 0.00000E+00 0.00000E+00 0.00000E+00 0.00000E+00
 -2           0.00000E+00 0.00000E+00 0.00000E+00 0.00000E+00 0.00000E+00 0.00000E+00
 -1       219 0.00000E+00 0.00000E+00 0.00000E+00 0.00000E+00 0.00000E+00 0.00000E+00
 -2           0.00000E+00 0.00000E+00 0.00000E+00 0.00000E+00 0.00000E+00 0.00000E+00
 -2           0.00000E+00 0.00000E+00 0.00000E+00 0.00000E+00 0.00000E+00 0.00000E+00
 -2           0.00000E+00 0.00000E+00 0.00000E+00 0.00000E+00 0.00000E+00 0.00000E+00
 -2           0.00000E+00 0.00000E+00 0.00000E+00 0.00000E+00 0.00000E+00 0.00000E+00
 -2           0.00000E+00 0.00000E+00 0.00000E+00 0.00000E+00 0.00000E+00 0.00000E+00
 -2           0.00000E+00 0.00000E+00 0.00000E+00 0.00000E+00 0.00000E+00 0.00000E+00
 -2           0.00000E+00 0.00000E+00 0.00000E+00 0.00000E+00 0.00000E+00 0.00000E+00
 -2           0.00000E+00 0.00000E+00 0.00000E+00 0.00000E+00 0.00000E+00 0.00000E+00
 -2           0.00000E+00 0.00000E+00 0.00000E+00 0.00000E+00 0.00000E+00 0.00000E+00
 -1       220 0.00000E+00 0.00000E+00 0.00000E+00 0.00000E+00 0.00000E+00 0.00000E+00
 -2           0.00000E+00 0.00000E+00 0.00000E+00 0.00000E+00 0.00000E+00 0.00000E+00
 -2           0.00000E+00 0.00000E+00 0.00000E+00 0.00000E+00 0.00000E+00 0.00000E+00
 -2           0.00000E+00 0.00000E+00 0.00000E+00 0.00000E+00 0.00000E+00 0.00000E+00
 -2           0.00000E+00 0.00000E+00 0.00000E+00 0.00000E+00 0.00000E+00 0.00000E+00
 -2           0.00000E+00 0.00000E+00 0.00000E+00 0.00000E+00 0.00000E+00 0.00000E+00
 -2           0.00000E+00 0.00000E+00 0.00000E+00 0.00000E+00 0.00000E+00 0.00000E+00
 -2           0.00000E+00 0.00000E+00 0.00000E+00 0.00000E+00 0.00000E+00 0.00000E+00
 -2           0.00000E+00 0.00000E+00 0.00000E+00 0.00000E+00 0.00000E+00 0.00000E+00
 -2           0.00000E+00 0.00000E+00 0.00000E+00 0.00000E+00 0.00000E+00 0.00000E+00
 -1       222 0.00000E+00 0.00000E+00 0.00000E+00 0.00000E+00 0.00000E+00 0.00000E+00
 -2           0.00000E+00 0.00000E+00 0.00000E+00 0.00000E+00 0.00000E+00 0.00000E+00
 -2           0.00000E+00 0.00000E+00 0.00000E+00 0.00000E+00 0.00000E+00 0.00000E+00
 -2           0.00000E+00 0.00000E+00 0.00000E+00 0.00000E+00 0.00000E+00 0.00000E+00
 -2           0.00000E+00 0.00000E+00 0.00000E+00 0.00000E+00 0.00000E+00 0.00000E+00
 -2           0.00000E+00 0.00000E+00 0.00000E+00 0.00000E+00 0.00000E+00 0.00000E+00
 -2           0.00000E+00 0.00000E+00 0.00000E+00 0.00000E+00 0.00000E+00 0.00000E+00
 -2           0.00000E+00 0.00000E+00 0.00000E+00 0.00000E+00 0.00000E+00 0.00000E+00
 -2           0.00000E+00 0.00000E+00 0.00000E+00 0.00000E+00 0.00000E+00 0.00000E+00
 -2           0.00000E+00 0.00000E+00 0.00000E+00 0.00000E+00 0.00000E+00 0.00000E+00
 -1       223 0.00000E+00 0.00000E+00 0.00000E+00 0.00000E+00 0.00000E+00 0.00000E+00
 -2           0.00000E+00 0.00000E+00 0.00000E+00 0.00000E+00 0.00000E+00 0.00000E+00
 -2           0.00000E+00 0.00000E+00 0.00000E+00 0.00000E+00 0.00000E+00 0.00000E+00
 -2           0.00000E+00 0.00000E+00 0.00000E+00 0.00000E+00 0.00000E+00 0.00000E+00
 -2           0.00000E+00 0.00000E+00 0.00000E+00 0.00000E+00 0.00000E+00 0.00000E+00
 -2           0.00000E+00 0.00000E+00 0.00000E+00 0.00000E+00 0.00000E+00 0.00000E+00
 -2           0.00000E+00 0.00000E+00 0.00000E+00 0.00000E+00 0.00000E+00 0.00000E+00
 -2           0.00000E+00 0.00000E+00 0.00000E+00 0.00000E+00 0.00000E+00 0.00000E+00
 -2           0.00000E+00 0.00000E+00 0.00000E+00 0.00000E+00 0.00000E+00 0.00000E+00
 -2           0.00000E+00 0.00000E+00 0.00000E+00 0.00000E+00 0.00000E+00 0.00000E+00
 -3
    1PSTEP                         4           2           1          
  100CL  102 1.440000000          20                     0    2           1
 -4  DISP        4    1
 -5  D1          1    2    1    0
 -5  D2          1    2    2    0
 -5  D3          1    2    3    0
 -5  ALL         1    2    0    0    1ALL
 -1         2 0.00000E+00 0.00000E+00 0.00000E+00
 -1        10 4.91765E-05 0.00000E+00 0.00000E+00
 -1        11 2.45889E-05-7.88664E-09 0.00000E+00
 -1        12 1.70607E-05 1.01791E-05 0.00000E+00
 -1        13 3.41171E-05 2.03752E-05 0.00000E+00
 -1        33 8.04779E-05 1.02447E-04 1.19982E-04
 -1        34 1.60991E-04 2.04893E-04 2.40000E-04
 -1        93 6.62648E-05 1.01686E-05 0.00000E+00
 -1        95 8.33529E-05 2.03500E-05 0.00000E+00
 -1        96 5.87393E-05 2.03531E-05 0.00000E+00
 -1       103 1.29683E-04 1.02430E-04 1.19919E-04
 -1       105 2.10227E-04 2.04868E-04 2.40000E-04
 -1       106 1.85605E-04 2.04890E-04 2.40000E-04
 -1       132 1.14661E-04 1.22813E-04 1.20081E-04
 -1       133 1.78080E-04 2.15074E-04 2.40000E-04
 -1       134 1.95168E-04 2.25243E-04 2.40000E-04
 -1       219 1.63866E-04 1.22796E-04 1.20018E-04
 -1       220 2.27284E-04 2.15064E-04 2.40000E-04
 -1       222 2.44344E-04 2.25243E-04 2.40000E-04
 -1       223 2.19755E-04 2.25251E-04 2.40000E-04
 -3
    1PSTEP                         5           2           1          
  100CL  102 1.440000000          20                     0    2           1
 -4  STRESS      6    1
 -5  SXX         1    4    1    1
 -5  SYY         1    4    2    2
 -5  SZZ         1    4    3    3
 -5  SXY         1    4    1    2
 -5  SYZ         1    4    2    3
 -5  SZX         1    4    3    1
 -1         2-8.42996E-03-7.92237E-03 4.97623E+01-4.20051E-03-4.07735E-03-1.53233E-02
 -1        10-8.35249E-03-8.07157E-03 4.96875E+01-3.38383E-03 4.46403E-03 7.23712E-03
 -1        11-9.10835E-03-7.45493E-03 4.97287E+01-3.20563E-03 1.14820E-03-5.03242E-03
 -1        12-5.84822E-03-7.60411E-03 4.98179E+01-5.32118E-03-1.21712E-02-1.74503E-02
 -1        13-4.34543E-03-9.56929E-03 4.98656E+01-3.67673E-03-2.29486E-02-1.91132E-02
 -1        33 3.23445E-03 3.00307E-03 4.97653E+01 2.45284E-03 2.75548E-03 2.57200E-03
 -1        34-5.20881E-03-7.50497E-03 4.97961E+01-3.72629E-03-1.09586E-02-9.49933E-03
 -1        93-6.24117E-03-6.64654E-03 4.97457E+01-4.93762E-03-1.90547E-03-1.36315E-03
 -1        95-5.20881E-03-7.50497E-03 4.97961E+01-3.72629E-03-1.09586E-02-9.49933E-03
 -1        96-5.49424E-03-7.99509E-03 4.98346E+01-3.11496E-03-1.59987E-02-1.52956E-02
 -1       103 3.70488E-03 1.89630E-03 4.97627E+01 2.88596E-03 1.03117E-03 9.04527E-03
 -1       105-4.34543E-03-9.56929E-03 4.98656E+01-3.67673E-03-2.29486E-02-1.91132E-02
 -1       106-5.49424E-03-7.99509E-03 4.98346E+01-3.11496E-03-1.59987E-02-1.52956E-02
 -1       132 3.70488E-03 1.89630E-03 4.97627E+01 2.88596E-03 1.03117E-03 9.04527E-03
 -1       133-6.24117E-03-6.64654E-03 4.97457E+01-4.93762E-03-1.90547E-03-1.36315E-03
 -1       134-8.35249E-03-8.07157E-03 4.96875E+01-3.38383E-03 4.46403E-03 7.23712E-03
 -1       219 3.23445E-03 3.00307E-03 4.97653E+01 2.45284E-03 2.75548E-03 2.57200E-03
 -1       220-5.84822E-03-7.60411E-03 4.98179E+01-5.32118E-03-1.21712E-02-1.74503E-02
 -1       222-8.42996E-03-7.92237E-03 4.97623E+01-4.20051E-03-4.07735E-03-1.53233E-02
 -1       223-9.10835E-03-7.45493E-03 4.97287E+01-3.20563E-03 1.14820E-03-5.03242E-03
 -3
    1PSTEP                         6           2           1          
  100CL  102 1.440000000          20                     0    2           1
 -4  SDV        60    1
 -5  SDV1        1    1    0    0
 -5  SDV2        1    1    0    0
 -5  SDV3        1    1    0    0
 -5  SDV4        1    1    0    0
 -5  SDV5        1    1    0    0
 -5  SDV6        1    1    0    0
 -5  SDV7        1    1    0    0
 -5  SDV8        1    1    0    0
 -5  SDV9        1    1    0    0
 -5  SDV10       1    1    0    0
 -5  SDV11       1    1    0    0
 -5  SDV12       1    1    0    0
 -5  SDV13       1    1    0    0
 -5  SDV14       1    1    0    0
 -5  SDV15       1    1    0    0
 -5  SDV16       1    1    0    0
 -5  SDV17       1    1    0    0
 -5  SDV18       1    1    0    0
 -5  SDV19       1    1    0    0
 -5  SDV20       1    1    0    0
 -5  SDV21       1    1    0    0
 -5  SDV22       1    1    0    0
 -5  SDV23       1    1    0    0
 -5  SDV24       1    1    0    0
 -5  SDV25       1    1    0    0
 -5  SDV26       1    1    0    0
 -5  SDV27       1    1    0    0
 -5  SDV28       1    1    0    0
 -5  SDV29       1    1    0    0
 -5  SDV30       1    1    0    0
 -5  SDV31       1    1    0    0
 -5  SDV32       1    1    0    0
 -5  SDV33       1    1    0    0
 -5  SDV34       1    1    0    0
 -5  SDV35       1    1    0    0
 -5  SDV36       1    1    0    0
 -5  SDV37       1    1    0    0
 -5  SDV38       1    1    0    0
 -5  SDV39       1    1    0    0
 -5  SDV40       1    1    0    0