
 displacements (vx,vy,vz) for set N1 and time  0.1000000E-01

         4 -3.139526E-02 -1.480238E-03  0.000000E+00
        10  0.000000E+00  0.000000E+00  3.141593E-02

 displacements (vx,vy,vz) for set N1 and time  0.2000000E-01

         4 -6.268204E-02 -4.931718E-03  0.000000E+00
        10  0.000000E+00  0.000000E+00  6.283185E-02

 displacements (vx,vy,vz) for set N1 and time  0.3000000E-01

         4 -9.376753E-02 -1.034811E-02  0.000000E+00
        10  0.000000E+00  0.000000E+00  9.424778E-02

 displacements (vx,vy,vz) for set N1 and time  0.4000000E-01

         4 -1.245593E-01 -1.771922E-02  0.000000E+00
        10  0.000000E+00  0.000000E+00  1.256637E-01

 displacements (vx,vy,vz) for set N1 and time  0.5000000E-01

         4 -1.549652E-01 -2.703095E-02  0.000000E+00
        10  0.000000E+00  0.000000E+00  1.570796E-01

 displacements (vx,vy,vz) for set N1 and time  0.6000000E-01

         4 -1.848940E-01 -3.826538E-02  0.000000E+00
        10  0.000000E+00  0.000000E+00  1.884956E-01

 displacements (vx,vy,vz) for set N1 and time  0.7000000E-01

         4 -2.142550E-01 -5.140077E-02  0.000000E+00
        10  0.000000E+00  0.000000E+00  2.199115E-01

 displacements (vx,vy,vz) for set N1 and time  0.8000000E-01

         4 -2.429585E-01 -6.641158E-02  0.000000E+00
        10  0.000000E+00  0.000000E+00  2.513274E-01

 displacements (vx,vy,vz) for set N1 and time  0.9000000E-01

         4 -2.709159E-01 -8.326853E-02  0.000000E+00
        10  0.000000E+00  0.000000E+00  2.827433E-01

 displacements (vx,vy,vz) for set N1 and time  0.1000000E+00

         4 -2.980398E-01 -1.019386E-01  0.000000E+00
        10  0.000000E+00  0.000000E+00  3.141593E-01

 displacements (vx,vy,vz) for set N1 and time  0.1100000E+00

         4 -3.242443E-01 -1.223852E-01  0.000000E+00
        10  0.000000E+00  0.000000E+00  3.455752E-01

 displacements (vx,vy,vz) for set N1 and time  0.1200000E+00

         4 -3.494447E-01 -1.445680E-01  0.000000E+00
        10  0.000000E+00  0.000000E+00  3.769911E-01

 displacements (vx,vy,vz) for set N1 and time  0.1300000E+00

         4 -3.735582E-01 -1.684432E-01  0.000000E+00
        10  0.000000E+00  0.000000E+00  4.084071E-01

 displacements (vx,vy,vz) for set N1 and time  0.1400000E+00

         4 -3.965038E-01 -1.939635E-01  0.000000E+00
        10  0.000000E+00  0.000000E+00  4.398230E-01

 displacements (vx,vy,vz) for set N1 and time  0.1500000E+00

         4 -4.182022E-01 -2.210782E-01  0.000000E+00
        10  0.000000E+00  0.000000E+00  4.712389E-01

 displacements (vx,vy,vz) for set N1 and time  0.1600000E+00

         4 -4.385764E-01 -2.497334E-01  0.000000E+00
        10  0.000000E+00  0.000000E+00  5.026548E-01

 displacements (vx,vy,vz) for set N1 and time  0.1700000E+00

         4 -4.575516E-01 -2.798716E-01  0.000000E+00
        10  0.000000E+00  0.000000E+00  5.340708E-01

 displacements (vx,vy,vz) for set N1 and time  0.1800000E+00

         4 -4.750550E-01 -3.114325E-01  0.000000E+00
        10  0.000000E+00  0.000000E+00  5.654867E-01

 displacements (vx,vy,vz) for set N1 and time  0.1900000E+00

         4 -4.910166E-01 -3.443524E-01  0.000000E+00
        10  0.000000E+00  0.000000E+00  5.969026E-01

 displacements (vx,vy,vz) for set N1 and time  0.2000000E+00

         4 -5.053688E-01 -3.785650E-01  0.000000E+00
        10  0.000000E+00  0.000000E+00  6.283185E-01

 displacements (vx,vy,vz) for set N1 and time  0.2100000E+00

         4 -5.180467E-01 -4.140007E-01  0.000000E+00
        10  0.000000E+00  0.000000E+00  6.597345E-01

 displacements (vx,vy,vz) for set N1 and time  0.2200000E+00

         4 -5.289882E-01 -4.505874E-01  0.000000E+00
        10  0.000000E+00  0.000000E+00  6.911504E-01

 displacements (vx,vy,vz) for set N1 and time  0.2300000E+00

         4 -5.381341E-01 -4.882501E-01  0.000000E+00
        10  0.000000E+00  0.000000E+00  7.225663E-01

 displacements (vx,vy,vz) for set N1 and time  0.2400000E+00

         4 -5.454284E-01 -5.269115E-01  0.000000E+00
        10  0.000000E+00  0.000000E+00  7.539822E-01

 displacements (vx,vy,vz) for set N1 and time  0.2500000E+00

         4 -5.508178E-01 -5.664917E-01  0.000000E+00
        10  0.000000E+00  0.000000E+00  7.853982E-01

 displacements (vx,vy,vz) for set N1 and time  0.2600000E+00

         4 -5.542526E-01 -6.069084E-01  0.000000E+00
        10  0.000000E+00  0.000000E+00  8.168141E-01

 displacements (vx,vy,vz) for set N1 and time  0.2700000E+00

         4 -5.556862E-01 -6.480773E-01  0.000000E+00
        10  0.000000E+00  0.000000E+00  8.482300E-01

 displacements (vx,vy,vz) for set N1 and time  0.2800000E+00

         4 -5.550755E-01 -6.899119E-01  0.000000E+00
        10  0.000000E+00  0.000000E+00  8.796460E-01

 displacements (vx,vy,vz) for set N1 and time  0.2900000E+00

         4 -5.523808E-01 -7.323237E-01  0.000000E+00
        10  0.000000E+00  0.000000E+00  9.110619E-01

 displacements (vx,vy,vz) for set N1 and time  0.3000000E+00

         4 -5.475660E-01 -7.752225E-01  0.000000E+00
        10  0.000000E+00  0.000000E+00  9.424778E-01

 displacements (vx,vy,vz) for set N1 and time  0.3100000E+00

         4 -5.405987E-01 -8.185164E-01  0.000000E+00
        10  0.000000E+00  0.000000E+00  9.738937E-01

 displacements (vx,vy,vz) for set N1 and time  0.3200000E+00

         4 -5.314501E-01 -8.621119E-01  0.000000E+00
        10  0.000000E+00  0.000000E+00  1.005310E+00

 displacements (vx,vy,vz) for set N1 and time  0.3300000E+00

         4 -5.200951E-01 -9.059142E-01  0.000000E+00
        10  0.000000E+00  0.000000E+00  1.036726E+00

 displacements (vx,vy,vz) for set N1 and time  0.3400000E+00

         4 -5.065126E-01 -9.498272E-01  0.000000E+00
        10  0.000000E+00  0.000000E+00  1.068142E+00

 displacements (vx,vy,vz) for set N1 and time  0.3500000E+00

         4 -4.906852E-01 -9.937537E-01  0.000000E+00
        10  0.000000E+00  0.000000E+00  1.099557E+00

 displacements (vx,vy,vz) for set N1 and time  0.3600000E+00

         4 -4.725996E-01 -1.037596E+00  0.000000E+00
        10  0.000000E+00  0.000000E+00  1.130973E+00

 displacements (vx,vy,vz) for set N1 and time  0.3700000E+00

         4 -4.522463E-01 -1.081254E+00  0.000000E+00
        10  0.000000E+00  0.000000E+00  1.162389E+00

 displacements (vx,vy,vz) for set N1 and time  0.3800000E+00

         4 -4.296200E-01 -1.124629E+00  0.000000E+00
        10  0.000000E+00  0.000000E+00  1.193805E+00

 displacements (vx,vy,vz) for set N1 and time  0.3900000E+00

         4 -4.047191E-01 -1.167621E+00  0.000000E+00
        10  0.000000E+00  0.000000E+00  1.225221E+00

 displacements (vx,vy,vz) for set N1 and time  0.4000000E+00

         4 -3.775465E-01 -1.210129E+00  0.000000E+00
        10  0.000000E+00  0.000000E+00  1.256637E+00

 displacements (vx,vy,vz) for set N1 and time  0.4100000E+00

         4 -3.481087E-01 -1.252053E+00  0.000000E+00
        10  0.000000E+00  0.000000E+00  1.288053E+00

 displacements (vx,vy,vz) for set N1 and time  0.4200000E+00

         4 -3.164167E-01 -1.293292E+00  0.000000E+00
        10  0.000000E+00  0.000000E+00  1.319469E+00

 displacements (vx,vy,vz) for set N1 and time  0.4300000E+00

         4 -2.824853E-01 -1.333745E+00  0.000000E+00
        10  0.000000E+00  0.000000E+00  1.350885E+00

 displacements (vx,vy,vz) for set N1 and time  0.4400000E+00

         4 -2.463335E-01 -1.373313E+00  0.000000E+00
        10  0.000000E+00  0.000000E+00  1.382301E+00

 displacements (vx,vy,vz) for set N1 and time  0.4500000E+00

         4 -2.079845E-01 -1.411895E+00  0.000000E+00
        10  0.000000E+00  0.000000E+00  1.413717E+00

 displacements (vx,vy,vz) for set N1 and time  0.4600000E+00

         4 -1.674655E-01 -1.449393E+00  0.000000E+00
        10  0.000000E+00  0.000000E+00  1.445133E+00

 displacements (vx,vy,vz) for set N1 and time  0.4700000E+00

         4 -1.248076E-01 -1.485708E+00  0.000000E+00
        10  0.000000E+00  0.000000E+00  1.476549E+00

 displacements (vx,vy,vz) for set N1 and time  0.4800000E+00

         4 -8.004627E-02 -1.520743E+00  0.000000E+00
        10  0.000000E+00  0.000000E+00  1.507964E+00

 displacements (vx,vy,vz) for set N1 and time  0.4900000E+00

         4 -3.322072E-02 -1.554401E+00  0.000000E+00
        10  0.000000E+00  0.000000E+00  1.539380E+00

 displacements (vx,vy,vz) for set N1 and time  0.5000000E+00

         4  1.562575E-02 -1.586587E+00  0.000000E+00
        10  0.000000E+00  0.000000E+00  1.570796E+00

 displacements (vx,vy,vz) for set N1 and time  0.5100000E+00

         4  6.644590E-02 -1.617207E+00  0.000000E+00
        10  0.000000E+00  0.000000E+00  1.602212E+00

 displacements (vx,vy,vz) for set N1 and time  0.5200000E+00

         4  1.191886E-01 -1.646169E+00  0.000000E+00
        10  0.000000E+00  0.000000E+00  1.633628E+00

 displacements (vx,vy,vz) for set N1 and time  0.5300000E+00

         4  1.737989E-01 -1.673383E+00  0.000000E+00
        10  0.000000E+00  0.000000E+00  1.665044E+00

 displacements (vx,vy,vz) for set N1 and time  0.5400000E+00

         4  2.302180E-01 -1.698760E+00  0.000000E+00
        10  0.000000E+00  0.000000E+00  1.696460E+00

 displacements (vx,vy,vz) for set N1 and time  0.5500000E+00

         4  2.883834E-01 -1.722213E+00  0.000000E+00
        10  0.000000E+00  0.000000E+00  1.727876E+00

 displacements (vx,vy,vz) for set N1 and time  0.5600000E+00

         4  3.482290E-01 -1.743657E+00  0.000000E+00
        10  0.000000E+00  0.000000E+00  1.759292E+00

 displacements (vx,vy,vz) for set N1 and time  0.5700000E+00

         4  4.096851E-01 -1.763012E+00  0.000000E+00
        10  0.000000E+00  0.000000E+00  1.790708E+00

 displacements (vx,vy,vz) for set N1 and time  0.5800000E+00

         4  4.726785E-01 -1.780196E+00  0.000000E+00
        10  0.000000E+00  0.000000E+00  1.822124E+00

 displacements (vx,vy,vz) for set N1 and time  0.5900000E+00

         4  5.371325E-01 -1.795132E+00  0.000000E+00
        10  0.000000E+00  0.000000E+00  1.853540E+00

 displacements (vx,vy,vz) for set N1 and time  0.6000000E+00

         4  6.029671E-01 -1.807746E+00  0.000000E+00
        10  0.000000E+00  0.000000E+00  1.884956E+00

 displacements (vx,vy,vz) for set N1 and time  0.6100000E+00

         4  6.700992E-01 -1.817967E+00  0.000000E+00
        10  0.000000E+00  0.000000E+00  1.916372E+00

 displacements (vx,vy,vz) for set N1 and time  0.6200000E+00

         4  7.384424E-01 -1.825724E+00  0.000000E+00
        10  0.000000E+00  0.000000E+00  1.947787E+00

 displacements (vx,vy,vz) for set N1 and time  0.6300000E+00

         4  8.079074E-01 -1.830954E+00  0.000000E+00
        10  0.000000E+00  0.000000E+00  1.979203E+00

 displacements (vx,vy,vz) for set N1 and time  0.6400000E+00

         4  8.784018E-01 -1.833593E+00  0.000000E+00
        10  0.000000E+00  0.000000E+00  2.010619E+00

 displacements (vx,vy,vz) for set N1 and time  0.6500000E+00

         4  9.498306E-01 -1.833582E+00  0.000000E+00
        10  0.000000E+00  0.000000E+00  2.042035E+00

 displacements (vx,vy,vz) for set N1 and time  0.6600000E+00

         4  1.022096E+00 -1.830866E+00  0.000000E+00
        10  0.000000E+00  0.000000E+00  2.073451E+00

 displacements (vx,vy,vz) for set N1 and time  0.6700000E+00

         4  1.095098E+00 -1.825392E+00  0.000000E+00
        10  0.000000E+00  0.000000E+00  2.104867E+00

 displacements (vx,vy,vz) for set N1 and time  0.6800000E+00

         4  1.168733E+00 -1.817112E+00  0.000000E+00
        10  0.000000E+00  0.000000E+00  2.136283E+00

 displacements (vx,vy,vz) for set N1 and time  0.6900000E+00

         4  1.242897E+00 -1.805982E+00  0.000000E+00
        10  0.000000E+00  0.000000E+00  2.167699E+00

 displacements (vx,vy,vz) for set N1 and time  0.7000000E+00

         4  1.317482E+00 -1.791960E+00  0.000000E+00
        10  0.000000E+00  0.000000E+00  2.199115E+00

 displacements (vx,vy,vz) for set N1 and time  0.7100000E+00

         4  1.392379E+00 -1.775009E+00  0.000000E+00
        10  0.000000E+00  0.000000E+00  2.230531E+00

 displacements (vx,vy,vz) for set N1 and time  0.7200000E+00

         4  1.467476E+00 -1.755098E+00  0.000000E+00
        10  0.000000E+00  0.000000E+00  2.261947E+00

 displacements (vx,vy,vz) for set N1 and time  0.7300000E+00

         4  1.542662E+00 -1.732196E+00  0.000000E+00
        10  0.000000E+00  0.000000E+00  2.293363E+00

 displacements (vx,vy,vz) for set N1 and time  0.7400000E+00

         4  1.617821E+00 -1.706280E+00  0.000000E+00
        10  0.000000E+00  0.000000E+00  2.324779E+00

 displacements (vx,vy,vz) for set N1 and time  0.7500000E+00

         4  1.692838E+00 -1.677329E+00  0.000000E+00
        10  0.000000E+00  0.000000E+00  2.356195E+00

 displacements (vx,vy,vz) for set N1 and time  0.7600000E+00

         4  1.767595E+00 -1.645327E+00  0.000000E+00
        10  0.000000E+00  0.000000E+00  2.387610E+00

 displacements (vx,vy,vz) for set N1 and time  0.7700000E+00

         4  1.841975E+00 -1.610263E+00  0.000000E+00
        10  0.000000E+00  0.000000E+00  2.419026E+00

 displacements (vx,vy,vz) for set N1 and time  0.7800000E+00

         4  1.915857E+00 -1.572129E+00  0.000000E+00
        10  0.000000E+00  0.000000E+00  2.450442E+00

 displacements (vx,vy,vz) for set N1 and time  0.7900000E+00

         4  1.989122E+00 -1.530923E+00  0.000000E+00
        10  0.000000E+00  0.000000E+00  2.481858E+00

 displacements (vx,vy,vz) for set N1 and time  0.8000000E+00

         4  2.061649E+00 -1.486647E+00  0.000000E+00
        10  0.000000E+00  0.000000E+00  2.513274E+00

 displacements (vx,vy,vz) for set N1 and time  0.8100000E+00

         4  2.133317E+00 -1.439307E+00  0.000000E+00
        10  0.000000E+00  0.000000E+00  2.544690E+00

 displacements (vx,vy,vz) for set N1 and time  0.8200000E+00

         4  2.204005E+00 -1.388915E+00  0.000000E+00
        10  0.000000E+00  0.000000E+00  2.576106E+00

 displacements (vx,vy,vz) for set N1 and time  0.8300000E+00

         4  2.273590E+00 -1.335486E+00  0.000000E+00
        10  0.000000E+00  0.000000E+00  2.607522E+00

 displacements (vx,vy,vz) for set N1 and time  0.8400000E+00

         4  2.341952E+00 -1.279040E+00  0.000000E+00
        10  0.000000E+00  0.000000E+00  2.638938E+00

 displacements (vx,vy,vz) for set N1 and time  0.8500000E+00

         4  2.408969E+00 -1.219602E+00  0.000000E+00
        10  0.000000E+00  0.000000E+00  2.670354E+00

 displacements (vx,vy,vz) for set N1 and time  0.8600000E+00

         4  2.474520E+00 -1.157202E+00  0.000000E+00
        10  0.000000E+00  0.000000E+00  2.701770E+00

 displacements (vx,vy,vz) for set N1 and time  0.8700000E+00

         4  2.538485E+00 -1.091875E+00  0.000000E+00
        10  0.000000E+00  0.000000E+00  2.733186E+00

 displacements (vx,vy,vz) for set N1 and time  0.8800000E+00

         4  2.600744E+00 -1.023659E+00  0.000000E+00
        10  0.000000E+00  0.000000E+00  2.764602E+00

 displacements (vx,vy,vz) for set N1 and time  0.8900000E+00

         4  2.661179E+00 -9.525976E-01  0.000000E+00
        10  0.000000E+00  0.000000E+00  2.796018E+00

 displacements (vx,vy,vz) for set N1 and time  0.9000000E+00

         4  2.719671E+00 -8.787394E-01  0.000000E+00
        10  0.000000E+00  0.000000E+00  2.827433E+00

 displacements (vx,vy,vz) for set N1 and time  0.9100000E+00

         4  2.776104E+00 -8.021370E-01  0.000000E+00
        10  0.000000E+00  0.000000E+00  2.858849E+00

 displacements (vx,vy,vz) for set N1 and time  0.9200000E+00

         4  2.830364E+00 -7.228480E-01  0.000000E+00
        10  0.000000E+00  0.000000E+00  2.890265E+00

 displacements (vx,vy,vz) for set N1 and time  0.9300000E+00

         4  2.882337E+00 -6.409340E-01  0.000000E+00
        10  0.000000E+00  0.000000E+00  2.921681E+00

 displacements (vx,vy,vz) for set N1 and time  0.9400000E+00

         4  2.931912E+00 -5.564615E-01  0.000000E+00
        10  0.000000E+00  0.000000E+00  2.953097E+00

 displacements (vx,vy,vz) for set N1 and time  0.9500000E+00

         4  2.978978E+00 -4.695013E-01  0.000000E+00
        10  0.000000E+00  0.000000E+00  2.984513E+00

 displacements (vx,vy,vz) for set N1 and time  0.9600000E+00

         4  3.023429E+00 -3.801286E-01  0.000000E+00
        10  0.000000E+00  0.000000E+00  3.015929E+00

 displacements (vx,vy,vz) for set N1 and time  0.9700000E+00

         4  3.065159E+00 -2.884227E-01  0.000000E+00
        10  0.000000E+00  0.000000E+00  3.047345E+00

 displacements (vx,vy,vz) for set N1 and time  0.9800000E+00

         4  3.104065E+00 -1.944675E-01  0.000000E+00
        10  0.000000E+00  0.000000E+00  3.078761E+00

 displacements (vx,vy,vz) for set N1 and time  0.9900000E+00

         4  3.140048E+00 -9.835072E-02  0.000000E+00
        10  0.000000E+00  0.000000E+00  3.110177E+00

 displacements (vx,vy,vz) for set N1 and time  0.1000000E+01

         4  3.173009E+00 -1.643496E-04  0.000000E+00
        10  0.000000E+00  0.000000E+00  3.141593E+00
