
 displacements (vx,vy,vz) for set NALL and time  0.1000000E+01

         1  2.397225E-26  0.000000E+00  6.776264E-19
         2  3.743569E-02  7.765087E-14  4.359951E-14
         3  1.866830E-02  1.852633E-14  1.024837E-14
         4  7.502564E-02  3.143292E-13  1.769066E-13
         5  5.624716E-02  1.779020E-13  1.002234E-13
         6  1.125694E-01  6.934191E-13  3.885845E-13
         7  9.379322E-02  4.859489E-13  2.730083E-13
         8  1.501247E-01  1.207309E-12  6.724417E-13
         9  1.313482E-01  9.346826E-13  5.223152E-13
        10  1.876771E-01  1.842158E-12  1.017827E-12
        11  1.689006E-01  1.510149E-12  8.379642E-13
        12  2.252302E-01  2.587072E-12  1.415279E-12
        13  2.064537E-01  2.201690E-12  1.210714E-12
        14  2.627831E-01  3.428800E-12  1.855385E-12
        15  2.440066E-01  2.996618E-12  1.630554E-12
        16  3.003361E-01  4.354018E-12  2.330641E-12
        17  2.815596E-01  3.881793E-12  2.089069E-12
        18  3.378890E-01  5.350390E-12  2.836026E-12
        19  3.191126E-01  4.843847E-12  2.579956E-12
        20  3.754420E-01  6.408016E-12  3.367103E-12
        21  3.566655E-01  5.872193E-12  3.098495E-12
        22  4.129949E-01  7.515451E-12  3.919372E-12
        23  3.942185E-01  6.956003E-12  3.640728E-12
        24  4.505479E-01  8.662474E-12  4.489385E-12
        25  4.317714E-01  8.084692E-12  4.202342E-12
        26  4.881008E-01  9.836400E-12  5.073158E-12
        27  4.693244E-01  9.246538E-12  4.779711E-12
        28  5.256539E-01  1.102612E-11  5.667789E-12
        29  5.068774E-01  1.042972E-11  5.369616E-12
        30  5.632064E-01  1.222576E-11  6.271431E-12
        31  5.444302E-01  1.162516E-11  5.968711E-12
        32  6.007610E-01  1.343372E-11  6.884615E-12
        33  5.819836E-01  1.282832E-11  6.576749E-12
        34  6.383082E-01  1.465098E-11  7.508376E-12
        35  6.195347E-01  1.404118E-11  7.195049E-12
        36  6.758824E-01  1.587543E-11  8.145212E-12
        37  6.570947E-01  1.526258E-11  7.824896E-12
        38  7.133570E-01  1.710131E-11  8.794688E-12
        39  6.946196E-01  1.649016E-11  8.469487E-12
        40  7.511702E-01  1.842224E-11  9.502823E-12
        41  7.322633E-01  1.771365E-11  9.122090E-12

 stresses (elem, integ.pnt.,sxx,syy,szz,sxy,sxz,syz) for set EALL and time  0.1000000E+01

         1   1  1.761838E+05 -5.675464E+03 -5.675464E+03 -3.082863E+01  3.082863E+01  5.339737E+03
         1   2  1.755101E+05 -2.678731E+03 -2.678731E+03 -3.202122E+01  3.202122E+01  2.570447E+03
         1   3  1.761924E+05  8.822974E+02  8.822974E+02 -3.663461E+01  3.663462E+01 -8.599605E+02
         1   4  1.734729E+05  3.603215E+03  1.259676E+03  2.283149E+02  3.000242E-07  2.781410E-09
         1   5  1.748199E+05  1.661281E+03  6.893936E+02  2.414622E+02  3.673235E-07 -2.267062E-08
         1   6  1.762674E+05 -5.342496E+02 -2.545965E+02  2.551206E+02  4.126273E-07  3.830794E-10
         1   7  1.761838E+05 -5.675464E+03 -5.675464E+03 -3.082863E+01 -3.082863E+01 -5.339737E+03
         1   8  1.755101E+05 -2.678731E+03 -2.678731E+03 -3.202122E+01 -3.202122E+01 -2.570447E+03
         1   9  1.761924E+05  8.822974E+02  8.822974E+02 -3.663461E+01 -3.663461E+01  8.599605E+02
         1  10  1.734729E+05  1.259676E+03  3.603215E+03  3.294587E-07 -2.283149E+02  1.056664E-08
         1  11  1.748199E+05  6.893936E+02  1.661281E+03  3.881618E-07 -2.414622E+02  1.987533E-08
         1  12  1.762674E+05 -2.545965E+02 -5.342496E+02  4.595765E-07 -2.551206E+02 -1.495082E-09
         1  13  1.732396E+05  5.179127E+03  5.179127E+03  8.430266E-09  4.178334E-09  5.965874E-10
         1  14  1.747158E+05  2.351971E+03  2.351971E+03  6.038918E-08  3.453485E-08 -8.375811E-11
         1  15  1.762933E+05 -7.489981E+02 -7.489981E+02  1.093698E-07  6.142860E-08 -3.048362E-11
         1  16  1.734729E+05  1.259676E+03  3.603215E+03 -3.111018E-07  2.283149E+02  8.297846E-09
         1  17  1.748199E+05  6.893936E+02  1.661281E+03 -2.637138E-07  2.414622E+02  2.034340E-08
         1  18  1.762674E+05 -2.545965E+02 -5.342496E+02 -2.408938E-07  2.551206E+02  7.653088E-10
         1  19  1.761838E+05 -5.675464E+03 -5.675464E+03  3.082863E+01  3.082863E+01 -5.339737E+03
         1  20  1.755101E+05 -2.678731E+03 -2.678731E+03  3.202122E+01  3.202122E+01 -2.570447E+03
         1  21  1.761924E+05  8.822974E+02  8.822974E+02  3.663462E+01  3.663461E+01  8.599605E+02
         1  22  1.734729E+05  3.603215E+03  1.259676E+03 -2.283149E+02 -2.906177E-07 -1.991331E-08
         1  23  1.748199E+05  1.661281E+03  6.893936E+02 -2.414622E+02 -2.958952E-07 -1.818203E-08
         1  24  1.762674E+05 -5.342496E+02 -2.545965E+02 -2.551206E+02 -2.901081E-07  3.196283E-10
         1  25  1.761838E+05 -5.675464E+03 -5.675464E+03  3.082863E+01 -3.082863E+01  5.339737E+03
         1  26  1.755101E+05 -2.678731E+03 -2.678731E+03  3.202122E+01 -3.202122E+01  2.570447E+03
         1  27  1.761924E+05  8.822974E+02  8.822974E+02  3.663461E+01 -3.663461E+01 -8.599605E+02
         2   1  1.766710E+05  1.741109E+03  1.741109E+03 -6.933336E+01  6.933336E+01 -1.685062E+03
         2   2  1.762167E+05  7.150810E+02  7.150810E+02 -2.357491E+01  2.357491E+01 -6.989307E+02
         2   3  1.758367E+05 -2.502606E+02 -2.502606E+02  2.006900E+01 -2.006900E+01  2.391930E+02
         2   4  1.767827E+05 -1.018452E+03 -4.873690E+02 -1.016562E+02  9.714707E-08  1.475247E-08
         2   5  1.762929E+05 -4.362738E+02 -2.072632E+02 -8.106064E+01  1.052666E-07  1.000689E-08
         2   6  1.758102E+05  1.475116E+02  6.602540E+01 -6.028699E+01  1.112809E-07 -1.002195E-09
         2   7  1.766710E+05  1.741109E+03  1.741109E+03 -6.933336E+01 -6.933336E+01  1.685062E+03
         2   8  1.762167E+05  7.150810E+02  7.150810E+02 -2.357491E+01 -2.357491E+01  6.989307E+02
         2   9  1.758367E+05 -2.502606E+02 -2.502606E+02  2.006900E+01  2.006900E+01 -2.391930E+02
         2  10  1.767827E+05 -4.873690E+02 -1.018452E+03  1.645026E-07  1.016562E+02 -1.338746E-08
         2  11  1.762929E+05 -2.072632E+02 -4.362738E+02  1.857291E-07  8.106064E+01 -1.102259E-08
         2  12  1.758102E+05  6.602540E+01  1.475116E+02  2.127667E-07  6.028699E+01  6.469532E-10
         2  13  1.768498E+05 -1.429540E+03 -1.429540E+03  1.460495E-07  8.250803E-08  1.546007E-11
         2  14  1.763249E+05 -6.096148E+02 -6.096148E+02  1.875647E-07  1.062338E-07 -1.145059E-10
         2  15  1.758082E+05  2.092432E+02  2.092432E+02  2.312919E-07  1.295197E-07  1.336966E-11
         2  16  1.767827E+05 -4.873690E+02 -1.018452E+03  1.258674E-07 -1.016562E+02 -1.140636E-08
         2  17  1.762929E+05 -2.072632E+02 -4.362738E+02  1.878162E-07 -8.106064E+01 -9.207144E-09
         2  18  1.758102E+05  6.602540E+01  1.475116E+02  2.497407E-07 -6.028699E+01  1.938923E-09
         2  19  1.766710E+05  1.741109E+03  1.741109E+03  6.933336E+01  6.933336E+01  1.685062E+03
         2  20  1.762167E+05  7.150810E+02  7.150810E+02  2.357491E+01  2.357491E+01  6.989307E+02
         2  21  1.758367E+05 -2.502606E+02 -2.502606E+02 -2.006900E+01 -2.006900E+01 -2.391930E+02
         2  22  1.767827E+05 -1.018452E+03 -4.873690E+02  1.016562E+02  6.646114E-08  1.030088E-08
         2  23  1.762929E+05 -4.362738E+02 -2.072632E+02  8.106064E+01  1.057541E-07  9.791313E-09
         2  24  1.758102E+05  1.475116E+02  6.602540E+01  6.028699E+01  1.479890E-07 -1.543001E-09
         2  25  1.766710E+05  1.741109E+03  1.741109E+03  6.933336E+01 -6.933336E+01 -1.685062E+03
         2  26  1.762167E+05  7.150810E+02  7.150810E+02  2.357491E+01 -2.357491E+01 -6.989307E+02
         2  27  1.758367E+05 -2.502606E+02 -2.502606E+02 -2.006900E+01  2.006900E+01  2.391930E+02
         3   1  1.757732E+05 -4.455399E+02 -4.455399E+02  3.436553E+01 -3.436553E+01  4.324288E+02
         3   2  1.758601E+05 -1.915713E+02 -1.915713E+02  1.335146E+01 -1.335146E+01  1.862466E+02
         3   3  1.759526E+05  6.641926E+01  6.641926E+01 -7.937079E+00  7.937079E+00 -6.328983E+01
         3   4  1.757059E+05  2.722416E+02  1.237552E+02  3.516200E+01  2.365627E-07 -5.571699E-09
         3   5  1.758313E+05  1.167893E+02  5.349563E+01  2.507557E+01  2.679748E-07 -4.063557E-09
         3   6  1.759572E+05 -3.881929E+01 -1.753561E+01  1.501325E+01  2.977987E-07  1.508729E-09
         3   7  1.757732E+05 -4.455399E+02 -4.455399E+02  3.436553E+01  3.436553E+01 -4.324288E+02
         3   8  1.758601E+05 -1.915713E+02 -1.915713E+02  1.335146E+01  1.335146E+01 -1.862466E+02
         3   9  1.759526E+05  6.641926E+01  6.641926E+01 -7.937079E+00 -7.937079E+00  6.328983E+01
         3  10  1.757059E+05  1.237552E+02  2.722416E+02  3.486922E-07 -3.516200E+01  5.689035E-09
         3  11  1.758313E+05  5.349563E+01  1.167893E+02  3.993223E-07 -2.507557E+01  3.694274E-09
         3  12  1.759572E+05 -1.753561E+01 -3.881929E+01  4.511246E-07 -1.501325E+01 -1.862329E-09
         3  13  1.756868E+05  3.821507E+02  3.821507E+02  2.536714E-07  1.422227E-07  7.112818E-11
         3  14  1.758212E+05  1.636037E+02  1.636037E+02  2.978288E-07  1.667881E-07  3.885441E-12
         3  15  1.759562E+05 -5.527683E+01 -5.527683E+01  3.433518E-07  1.910915E-07 -3.168916E-12
         3  16  1.757059E+05  1.237552E+02  2.722416E+02  1.602533E-07  3.516200E+01  7.045791E-09
         3  17  1.758313E+05  5.349563E+01  1.167893E+02  1.981537E-07  2.507557E+01  5.028764E-09
         3  18  1.759572E+05 -1.753561E+01 -3.881929E+01  2.355485E-07  1.501325E+01 -4.366243E-10
         3  19  1.757732E+05 -4.455399E+02 -4.455399E+02 -3.436553E+01 -3.436553E+01 -4.324288E+02
         3  20  1.758601E+05 -1.915713E+02 -1.915713E+02 -1.335146E+01 -1.335146E+01 -1.862466E+02
         3  21  1.759526E+05  6.641926E+01  6.641926E+01  7.937079E+00  7.937079E+00  6.328983E+01
         3  22  1.757059E+05  2.722416E+02  1.237552E+02 -3.516200E+01  4.882532E-08 -6.895920E-09
         3  23  1.758313E+05  1.167893E+02  5.349563E+01 -2.507557E+01  6.628131E-08 -4.670483E-09
         3  24  1.759572E+05 -3.881929E+01 -1.753561E+01 -1.501325E+01  8.346688E-08  7.750732E-10
         3  25  1.757732E+05 -4.455399E+02 -4.455399E+02 -3.436553E+01  3.436553E+01  4.324288E+02
         3  26  1.758601E+05 -1.915713E+02 -1.915713E+02 -1.335146E+01  1.335146E+01  1.862466E+02
         3  27  1.759526E+05  6.641926E+01  6.641926E+01  7.937079E+00 -7.937079E+00 -6.328983E+01
         4   1  1.759691E+05  1.210565E+02  1.210565E+02 -1.381127E+01  1.381127E+01 -1.169201E+02
         4   2  1.759439E+05  5.100720E+01  5.100720E+01 -5.518844E+00  5.518845E+00 -4.978009E+01
         4   3  1.759189E+05 -1.774045E+01 -1.774045E+01  2.744908E+00 -2.744907E+00  1.694429E+01
         4   4  1.759849E+05 -7.223963E+01 -3.300549E+01 -1.147178E+01  3.193412E-07  3.168063E-09
         4   5  1.759514E+05 -3.122373E+01 -1.447286E+01 -7.598179E+00  3.395061E-07  1.262474E-09
         4   6  1.759180E+05  1.050798E+01  4.790279E+00 -3.722084E+00  3.611200E-07  2.003428E-11
         4   7  1.759691E+05  1.210565E+02  1.210565E+02 -1.381127E+01 -1.381127E+01  1.169201E+02
         4   8  1.759439E+05  5.100720E+01  5.100720E+01 -5.518844E+00 -5.518844E+00  4.978009E+01
         4   9  1.759189E+05 -1.774045E+01 -1.774045E+01  2.744908E+00  2.744908E+00 -1.694429E+01
         4  10  1.759849E+05 -3.300549E+01 -7.223963E+01  4.841603E-07  1.147178E+01 -3.424368E-09
         4  11  1.759514E+05 -1.447286E+01 -3.122373E+01  5.218138E-07  7.598179E+00 -1.582990E-09
         4  12  1.759180E+05  4.790279E+00  1.050798E+01  5.617593E-07  3.722085E+00 -3.397876E-10
         4  13  1.759904E+05 -1.015519E+02 -1.015519E+02  3.675664E-07  2.042324E-07  3.224788E-12
         4  14  1.759546E+05 -4.361670E+01 -4.361670E+01  4.059227E-07  2.237926E-07 -5.121770E-12
         4  15  1.759187E+05  1.497795E+01  1.497795E+01  4.428780E-07  2.437877E-07 -1.160758E-11
         4  16  1.759849E+05 -3.300549E+01 -7.223963E+01  2.512373E-07 -1.147178E+01 -2.081233E-09
         4  17  1.759514E+05 -1.447286E+01 -3.122373E+01  2.882598E-07 -7.598179E+00 -2.791316E-10
         4  18  1.759180E+05  4.790279E+00  1.050798E+01  3.258091E-07 -3.722084E+00  8.928163E-10
         4  19  1.759691E+05  1.210565E+02  1.210565E+02  1.381127E+01  1.381127E+01  1.169201E+02
         4  20  1.759439E+05  5.100720E+01  5.100720E+01  5.518845E+00  5.518845E+00  4.978009E+01
         4  21  1.759189E+05 -1.774045E+01 -1.774045E+01 -2.744907E+00 -2.744907E+00 -1.694429E+01
         4  22  1.759849E+05 -7.223963E+01 -3.300549E+01  1.147178E+01  8.947416E-08  2.360413E-09
         4  23  1.759514E+05 -3.122373E+01 -1.447286E+01  7.598180E+00  1.069428E-07  5.877478E-10
         4  24  1.759180E+05  1.050798E+01  4.790279E+00  3.722085E+00  1.255027E-07 -6.031654E-10
         4  25  1.759691E+05  1.210565E+02  1.210565E+02  1.381127E+01 -1.381127E+01 -1.169201E+02
         4  26  1.759439E+05  5.100720E+01  5.100720E+01  5.518845E+00 -5.518844E+00 -4.978009E+01
         4  27  1.759189E+05 -1.774045E+01 -1.774045E+01 -2.744907E+00  2.744908E+00  1.694429E+01
         5   1  1.759147E+05 -3.195323E+01 -3.195323E+01  4.905109E+00 -4.905108E+00  3.109967E+01
         5   2  1.759213E+05 -1.346969E+01 -1.346969E+01  1.996767E+00 -1.996766E+00  1.328908E+01
         5   3  1.759280E+05  4.892039E+00  4.892039E+00 -9.142604E-01  9.142614E-01 -4.514426E+00
         5   4  1.759102E+05  1.949751E+01  8.997174E+00  3.651198E+00  3.791523E-07 -2.609436E-10
         5   5  1.759191E+05  8.475972E+00  3.992440E+00  2.278696E+00  3.977888E-07 -1.643616E-10
         5   6  1.759281E+05 -2.648502E+00 -1.126545E+00  9.064273E-01  4.158856E-07  3.853682E-10
         5   7  1.759147E+05 -3.195323E+01 -3.195323E+01  4.905109E+00  4.905109E+00 -3.109967E+01
         5   8  1.759213E+05 -1.346969E+01 -1.346969E+01  1.996767E+00  1.996767E+00 -1.328908E+01
         5   9  1.759280E+05  4.892039E+00  4.892039E+00 -9.142606E-01 -9.142606E-01  4.514426E+00
         5  10  1.759102E+05  8.997174E+00  1.949751E+01  5.887169E-07 -3.651198E+00 -4.489365E-11
         5  11  1.759191E+05  3.992440E+00  8.475972E+00  6.246173E-07 -2.278695E+00 -1.158661E-10
         5  12  1.759281E+05 -1.126545E+00 -2.648502E+00  6.616605E-07 -9.064264E-01 -6.688366E-10
         5  13  1.759086E+05  2.730327E+01  2.730327E+01  4.646480E-07  2.545524E-07 -8.378415E-12
         5  14  1.759182E+05  1.177324E+01  1.177324E+01  5.009972E-07  2.720075E-07  2.622396E-12
         5  15  1.759278E+05 -3.854496E+00 -3.854496E+00  5.362026E-07  2.890654E-07  3.115558E-12
         5  16  1.759102E+05  8.997174E+00  1.949751E+01  3.407564E-07  3.651198E+00  1.171957E-09
         5  17  1.759191E+05  3.992440E+00  8.475972E+00  3.744978E-07  2.278696E+00  1.026435E-09
         5  18  1.759281E+05 -1.126545E+00 -2.648502E+00  4.094922E-07  9.064270E-01  4.430814E-10
         5  19  1.759147E+05 -3.195323E+01 -3.195323E+01 -4.905108E+00 -4.905109E+00 -3.109967E+01
         5  20  1.759213E+05 -1.346969E+01 -1.346969E+01 -1.996766E+00 -1.996766E+00 -1.328908E+01
         5  21  1.759280E+05  4.892039E+00  4.892039E+00  9.142616E-01  9.142612E-01  4.514426E+00
         5  22  1.759102E+05  1.949751E+01  8.997174E+00 -3.651197E+00  1.302823E-07 -8.849387E-10
         5  23  1.759191E+05  8.475972E+00  3.992440E+00 -2.278695E+00  1.463393E-07 -7.329278E-10
         5  24  1.759281E+05 -2.648502E+00 -1.126545E+00 -9.064262E-01  1.635187E-07 -1.529589E-10
         5  25  1.759147E+05 -3.195323E+01 -3.195323E+01 -4.905108E+00  4.905109E+00  3.109967E+01
         5  26  1.759213E+05 -1.346969E+01 -1.346969E+01 -1.996766E+00  1.996766E+00  1.328908E+01
         5  27  1.759280E+05  4.892039E+00  4.892039E+00  9.142614E-01 -9.142608E-01 -4.514426E+00
         6   1  1.759289E+05  8.686696E+00  8.686696E+00 -1.635047E+00  1.635049E+00 -8.305815E+00
         6   2  1.759272E+05  3.724628E+00  3.724628E+00 -6.722938E-01  6.722949E-01 -3.544584E+00
         6   3  1.759254E+05 -1.166383E+00 -1.166383E+00  2.902226E-01 -2.902214E-01  1.203546E+00
         6   4  1.759302E+05 -5.046546E+00 -2.246822E+00 -1.126340E+00  4.230307E-07  5.494951E-10
         6   5  1.759278E+05 -2.124133E+00 -9.290872E-01 -6.733626E-01  4.384297E-07  3.505352E-10
         6   6  1.759254E+05  8.481558E-01  4.423028E-01 -2.203649E-01  4.523520E-07  2.504122E-10
         6   7  1.759289E+05  8.686696E+00  8.686696E+00 -1.635048E+00 -1.635048E+00  8.305815E+00
         6   8  1.759272E+05  3.724628E+00  3.724628E+00 -6.722940E-01 -6.722941E-01  3.544584E+00
         6   9  1.759254E+05 -1.166383E+00 -1.166383E+00  2.902223E-01  2.902223E-01 -1.203546E+00
         6  10  1.759302E+05 -2.246822E+00 -5.046546E+00  6.797166E-07  1.126341E+00 -8.269044E-10
         6  11  1.759278E+05 -9.290872E-01 -2.124133E+00  7.121150E-07  6.733635E-01 -6.183226E-10
         6  12  1.759254E+05  4.423028E-01  8.481558E-01  7.454261E-07  2.203659E-01 -5.494227E-10
         6  13  1.759306E+05 -7.125372E+00 -7.125372E+00  5.561763E-07  2.985738E-07  2.975821E-12
         6  14  1.759281E+05 -2.999163E+00 -2.999163E+00  5.884513E-07  3.137106E-07  3.928971E-12
         6  15  1.759255E+05  1.173855E+00  1.173855E+00  6.195234E-07  3.273465E-07 -8.240918E-13
         6  16  1.759302E+05 -2.246822E+00 -5.046546E+00  4.310215E-07 -1.126340E+00  2.622027E-10
         6  17  1.759278E+05 -9.290872E-01 -2.124133E+00  4.643443E-07 -6.733629E-01  4.330716E-10
         6  18  1.759254E+05  4.423028E-01  8.481558E-01  4.944845E-07 -2.203652E-01  4.475900E-10
         6  19  1.759289E+05  8.686696E+00  8.686696E+00  1.635049E+00  1.635048E+00  8.305815E+00
         6  20  1.759272E+05  3.724628E+00  3.724628E+00  6.722952E-01  6.722947E-01  3.544584E+00
         6  21  1.759254E+05 -1.166383E+00 -1.166383E+00 -2.902211E-01 -2.902216E-01 -1.203546E+00
         6  22  1.759302E+05 -5.046546E+00 -2.246822E+00  1.126341E+00  1.754915E-07  1.731950E-11
         6  23  1.759278E+05 -2.124133E+00 -9.290872E-01  6.733638E-01  1.899186E-07 -1.511898E-10
         6  24  1.759254E+05  8.481558E-01  4.423028E-01  2.203662E-01  2.036307E-07 -1.451361E-10
         6  25  1.759289E+05  8.686696E+00  8.686696E+00  1.635049E+00 -1.635048E+00 -8.305815E+00
         6  26  1.759272E+05  3.724628E+00  3.724628E+00  6.722950E-01 -6.722943E-01 -3.544584E+00
         6  27  1.759254E+05 -1.166383E+00 -1.166383E+00 -2.902213E-01  2.902221E-01  1.203546E+00
         7   1  1.759252E+05 -2.167914E+00 -2.167914E+00  5.236701E-01 -5.236689E-01  2.213168E+00
         7   2  1.759256E+05 -8.471206E-01 -8.471206E-01  2.169777E-01 -2.169764E-01  9.449279E-01
         7   3  1.759261E+05  4.560639E-01  4.560639E-01 -8.973488E-02  8.973614E-02 -3.203788E-01
         7   4  1.759248E+05  1.490597E+00  7.442543E-01  3.418599E-01  4.628283E-07  1.416455E-10
         7   5  1.759255E+05  7.110031E-01  3.923636E-01  1.973682E-01  4.759439E-07  3.299061E-11
         7   6  1.759261E+05 -8.130507E-02  2.672421E-02  5.287824E-02  4.864097E-07  2.814730E-10
         7   7  1.759252E+05 -2.167914E+00 -2.167914E+00  5.236699E-01  5.236698E-01 -2.213168E+00
         7   8  1.759256E+05 -8.471206E-01 -8.471206E-01  2.169774E-01  2.169773E-01 -9.449279E-01
         7   9  1.759261E+05  4.560639E-01  4.560639E-01 -8.973509E-02 -8.973522E-02  3.203788E-01
         7  10  1.759248E+05  7.442543E-01  1.490597E+00  7.635450E-07 -3.418589E-01 -4.359164E-10
         7  11  1.759255E+05  3.923636E-01  7.110031E-01  7.904666E-07 -1.973672E-01 -2.779320E-10
         7  12  1.759261E+05  2.672421E-02 -8.130507E-02  8.207838E-07 -5.287719E-02 -5.171415E-10
         7  13  1.759247E+05  2.043538E+00  2.043538E+00  6.357778E-07  3.349002E-07 -6.694504E-12
         7  14  1.759254E+05  9.431884E-01  9.431884E-01  6.629164E-07  3.471206E-07 -6.297173E-12
         7  15  1.759261E+05 -1.691157E-01 -1.691157E-01  6.920793E-07  3.587073E-07  1.357584E-11
         7  16  1.759248E+05  7.442543E-01  1.490597E+00  5.081824E-07  3.418596E-01  5.185936E-10
         7  17  1.759255E+05  3.923636E-01  7.110031E-01  5.353527E-07  1.973679E-01  6.063853E-10
         7  18  1.759261E+05  2.672421E-02 -8.130507E-02  5.620553E-07  5.287791E-02  3.472923E-10
         7  19  1.759252E+05 -2.167914E+00 -2.167914E+00 -5.236686E-01 -5.236691E-01 -2.213168E+00
         7  20  1.759256E+05 -8.471206E-01 -8.471206E-01 -2.169761E-01 -2.169766E-01 -9.449279E-01
         7  21  1.759261E+05  4.560639E-01  4.560639E-01  8.973646E-02  8.973593E-02  3.203788E-01
         7  22  1.759248E+05  1.490597E+00  7.442543E-01 -3.418586E-01  2.074574E-07 -2.446213E-10
         7  23  1.759255E+05  7.110031E-01  3.923636E-01 -1.973669E-01  2.180867E-07 -3.932230E-10
         7  24  1.759261E+05 -8.130507E-02  2.672421E-02 -5.287686E-02  2.288292E-07 -5.683902E-11
         7  25  1.759252E+05 -2.167914E+00 -2.167914E+00 -5.236688E-01  5.236695E-01  2.213168E+00
         7  26  1.759256E+05 -8.471206E-01 -8.471206E-01 -2.169763E-01  2.169771E-01  9.449279E-01
         7  27  1.759261E+05  4.560639E-01  4.560639E-01  8.973626E-02 -8.973543E-02 -3.203788E-01
         8   1  1.759262E+05  7.214380E-01  7.214380E-01 -1.628141E-01  1.628154E-01 -5.895600E-01
         8   2  1.759260E+05  3.691074E-01  3.691074E-01 -6.850841E-02  6.850974E-02 -2.518177E-01
         8   3  1.759259E+05  2.247245E-02  2.247245E-02  2.579560E-02 -2.579424E-02  8.494815E-02
         8   4  1.759263E+05 -2.528457E-01 -5.405274E-02 -1.020273E-01  4.975722E-07  2.961468E-10
         8   5  1.759261E+05 -4.584176E-02  3.906951E-02 -5.760934E-02  5.079193E-07  6.794715E-11
         8   6  1.759259E+05  1.652433E-01  1.365990E-01 -1.319124E-02  5.182082E-07  1.509256E-10
         8   7  1.759262E+05  7.214380E-01  7.214380E-01 -1.628143E-01 -1.628144E-01  5.895600E-01
         8   8  1.759260E+05  3.691074E-01  3.691074E-01 -6.850863E-02 -6.850877E-02  2.518177E-01
         8   9  1.759259E+05  2.247245E-02  2.247245E-02  2.579537E-02  2.579523E-02 -8.494815E-02
         8  10  1.759263E+05 -5.405274E-02 -2.528457E-01  8.405052E-07  1.020284E-01 -5.302899E-10
         8  11  1.759261E+05  3.906951E-02 -4.584176E-02  8.624118E-07  5.761044E-02 -2.928264E-10
         8  12  1.759259E+05  1.365990E-01  1.652433E-01  8.880268E-07  1.319238E-02 -3.865163E-10
         8  13  1.759263E+05 -3.998541E-01 -3.998541E-01  7.065453E-07  3.647716E-07  1.373968E-11
         8  14  1.759261E+05 -1.074378E-01 -1.074378E-01  7.293591E-07  3.752804E-07 -5.175436E-12
         8  15  1.759259E+05  1.888139E-01  1.888139E-01  7.519326E-07  3.836562E-07 -3.528437E-12
         8  16  1.759263E+05 -5.405274E-02 -2.528457E-01  5.723293E-07 -1.020276E-01  3.085807E-10
         8  17  1.759261E+05  3.906951E-02 -4.584176E-02  5.949391E-07 -5.760969E-02  4.711079E-10
         8  18  1.759259E+05  1.365990E-01  1.652433E-01  6.174832E-07 -1.319161E-02  3.450096E-10
         8  19  1.759262E+05  7.214380E-01  7.214380E-01  1.628157E-01  1.628151E-01  5.895600E-01
         8  20  1.759260E+05  3.691074E-01  3.691074E-01  6.851009E-02  6.850951E-02  2.518177E-01
         8  21  1.759259E+05  2.247245E-02  2.247245E-02 -2.579387E-02 -2.579446E-02 -8.494815E-02
         8  22  1.759263E+05 -2.528457E-01 -5.405274E-02  1.020287E-01  2.312836E-07 -1.862591E-11
         8  23  1.759261E+05 -4.584176E-02  3.906951E-02  5.761080E-02  2.397653E-07 -2.715680E-10
         8  24  1.759259E+05  1.652433E-01  1.365990E-01  1.319275E-02  2.488525E-07 -1.191904E-10
         8  25  1.759262E+05  7.214380E-01  7.214380E-01  1.628155E-01 -1.628146E-01 -5.895600E-01
         8  26  1.759260E+05  3.691074E-01  3.691074E-01  6.850987E-02 -6.850898E-02 -2.518177E-01
         8  27  1.759259E+05  2.247245E-02  2.247245E-02 -2.579410E-02  2.579501E-02  8.494815E-02
         9   1  1.759259E+05 -4.789051E-02 -4.789051E-02  4.886438E-02 -4.886299E-02  1.567409E-01
         9   2  1.759259E+05  4.523984E-02  4.523983E-02  2.336059E-02 -2.335917E-02  6.748374E-02
         9   3  1.759260E+05  1.368863E-01  1.368863E-01 -2.143334E-03  2.144768E-03 -2.152072E-02
         9   4  1.759259E+05  2.111252E-01  1.582723E-01  2.972289E-02  5.284953E-07  2.045763E-10
         9   5  1.759259E+05  1.564358E-01  1.336804E-01  1.770866E-02  5.389324E-07  1.203505E-10
         9   6  1.759260E+05  1.006812E-01  1.079379E-01  5.694424E-03  5.467462E-07  4.910835E-11
         9   7  1.759259E+05 -4.789051E-02 -4.789052E-02  4.886415E-02  4.886400E-02 -1.567409E-01
         9   8  1.759259E+05  4.523983E-02  4.523983E-02  2.336035E-02  2.336019E-02 -6.748374E-02
         9   9  1.759260E+05  1.368863E-01  1.368863E-01 -2.143563E-03 -2.143727E-03  2.152072E-02
         9  10  1.759259E+05  1.582723E-01  2.111252E-01  9.019703E-07 -2.972173E-02 -4.356985E-10
         9  11  1.759259E+05  1.336804E-01  1.564358E-01  9.215976E-07 -1.770747E-02 -3.222239E-10
         9  12  1.759260E+05  1.079379E-01  1.006812E-01  9.435963E-07 -5.693210E-03 -2.439157E-10
         9  13  1.759259E+05  2.502001E-01  2.502001E-01  7.649990E-07  3.911612E-07 -3.085862E-12
         9  14  1.759259E+05  1.729377E-01  1.729377E-01  7.828550E-07  3.991610E-07 -1.078817E-11
         9  15  1.759260E+05  9.467420E-02  9.467420E-02  8.055025E-07  4.080253E-07 -9.246572E-12
         9  16  1.759259E+05  1.582723E-01  2.111252E-01  6.269582E-07  2.972252E-02  2.912348E-10
         9  17  1.759259E+05  1.336804E-01  1.564358E-01  6.464829E-07  1.770827E-02  3.718455E-10
         9  18  1.759260E+05  1.079379E-01  1.006812E-01  6.689688E-07  5.694026E-03  3.706691E-10
         9  19  1.759259E+05 -4.789051E-02 -4.789051E-02 -4.886263E-02 -4.886323E-02 -1.567409E-01
         9  20  1.759259E+05  4.523983E-02  4.523984E-02 -2.335878E-02 -2.335940E-02 -6.748374E-02
         9  21  1.759260E+05  1.368863E-01  1.368863E-01  2.145172E-03  2.144543E-03  2.152072E-02
         9  22  1.759259E+05  2.111252E-01  1.582723E-01 -2.972136E-02  2.519920E-07 -6.360450E-11
         9  23  1.759259E+05  1.564358E-01  1.336804E-01 -1.770708E-02  2.596289E-07 -1.960781E-10
         9  24  1.759260E+05  1.006812E-01  1.079379E-01 -5.692812E-03  2.680153E-07 -1.861811E-10
         9  25  1.759259E+05 -4.789052E-02 -4.789051E-02 -4.886285E-02  4.886379E-02  1.567409E-01
         9  26  1.759259E+05  4.523983E-02  4.523984E-02 -2.335902E-02  2.335997E-02  6.748374E-02
         9  27  1.759260E+05  1.368863E-01  1.368863E-01  2.144948E-03 -2.143963E-03 -2.152072E-02
        10   1  1.759260E+05  1.564169E-01  1.564169E-01 -1.165662E-02  1.165808E-02 -4.109123E-02
        10   2  1.759260E+05  1.339893E-01  1.339893E-01 -1.603424E-02  1.603571E-02 -1.949321E-02
        10   3  1.759260E+05  1.114652E-01  1.114652E-01 -2.041184E-02  2.041334E-02  2.121251E-03
        10   4  1.759260E+05  8.826871E-02  1.021245E-01 -7.123753E-03  5.512208E-07  1.463443E-10
        10   5  1.759260E+05  1.016097E-01  1.081828E-01 -9.190600E-03  5.558385E-07  2.217695E-10
        10   6  1.759260E+05  1.148815E-01  1.141662E-01 -1.125744E-02  5.617249E-07 -2.077585E-10
        10   7  1.759260E+05  1.564169E-01  1.564169E-01 -1.165685E-02 -1.165703E-02  4.109123E-02
        10   8  1.759260E+05  1.339893E-01  1.339893E-01 -1.603447E-02 -1.603465E-02  1.949321E-02
        10   9  1.759260E+05  1.114652E-01  1.114652E-01 -2.041206E-02 -2.041227E-02 -2.121251E-03
        10  10  1.759260E+05  1.021245E-01  8.826871E-02  9.533980E-07  7.124976E-03 -3.233111E-10
        10  11  1.759260E+05  1.081828E-01  1.016097E-01  9.708948E-07  9.191846E-03 -3.652701E-10
        10  12  1.759260E+05  1.141662E-01  1.148815E-01  9.865730E-07  1.125871E-02  5.042651E-11
        10  13  1.759260E+05  7.778019E-02  7.778019E-02  8.175018E-07  4.112663E-07 -4.183456E-12
        10  14  1.759260E+05  9.658327E-02  9.658327E-02  8.325738E-07  4.177376E-07 -4.763417E-12
        10  15  1.759260E+05  1.153213E-01  1.153213E-01  8.492045E-07  4.260541E-07 -2.098378E-11
        10  16  1.759260E+05  1.021245E-01  8.826871E-02  6.798086E-07 -7.124155E-03  2.455929E-10
        10  17  1.759260E+05  1.081828E-01  1.016097E-01  6.967850E-07 -9.191015E-03  1.641066E-10
        10  18  1.759260E+05  1.141662E-01  1.148815E-01  7.128144E-07 -1.125787E-02  5.553533E-10
        10  19  1.759260E+05  1.564169E-01  1.564169E-01  1.165849E-02  1.165785E-02  4.109123E-02
        10  20  1.759260E+05  1.339893E-01  1.339893E-01  1.603613E-02  1.603549E-02  1.949321E-02
        10  21  1.759260E+05  1.114652E-01  1.114652E-01  2.041378E-02  2.041313E-02 -2.121251E-03
        10  22  1.759260E+05  8.826871E-02  1.021245E-01  7.125385E-03  2.722354E-07 -5.511114E-11
        10  23  1.759260E+05  1.016097E-01  1.081828E-01  9.192263E-03  2.796384E-07 -2.659385E-11
        10  24  1.759260E+05  1.148815E-01  1.141662E-01  1.125914E-02  2.904139E-07 -4.879871E-10
        10  25  1.759260E+05  1.564169E-01  1.564169E-01  1.165826E-02 -1.165725E-02 -4.109123E-02
        10  26  1.759260E+05  1.339893E-01  1.339893E-01  1.603591E-02 -1.603488E-02 -1.949321E-02
        10  27  1.759260E+05  1.114652E-01  1.114652E-01  2.041354E-02 -2.041248E-02  2.121251E-03
        11   1  1.759260E+05  1.029568E-01  1.029568E-01 -7.895026E-03  7.896523E-03  8.895663E-03
        11   2  1.759260E+05  1.009241E-01  1.009241E-01  3.867529E-02 -3.867378E-02  1.032554E-02
        11   3  1.759260E+05  1.009375E-01  1.009375E-01  8.524560E-02 -8.524408E-02  1.140644E-02
        11   4  1.759260E+05  1.187189E-01  1.157193E-01 -3.784662E-03  5.570627E-07  5.102740E-11
        11   5  1.759260E+05  1.190543E-01  1.155725E-01  1.817302E-02  5.603066E-07  6.181518E-10
        11   6  1.759260E+05  1.208577E-01  1.170114E-01  4.013070E-02  5.651070E-07 -4.841397E-10
        11   7  1.759260E+05  1.029568E-01  1.029568E-01 -7.895245E-03 -7.895449E-03 -8.895662E-03
        11   8  1.759260E+05  1.009241E-01  1.009241E-01  3.867508E-02  3.867487E-02 -1.032554E-02
        11   9  1.759260E+05  1.009375E-01  1.009375E-01  8.524541E-02  8.524515E-02 -1.140644E-02