
 displacements (vx,vy,vz) for set NALL and time  0.1000000E+01

         1  0.000000E+00  0.000000E+00  2.646978E-23
         2 -1.550088E-06  3.148135E-16  5.573867E-04
         3 -7.789320E-07  1.580140E-16  2.793926E-04
         4 -3.038959E-06  6.205713E-16  1.103615E-03
         5 -2.305928E-06  4.693926E-16  8.325938E-04
         6 -4.409102E-06  9.087043E-16  1.627521E-03
         7 -3.742255E-06  7.673685E-16  1.369055E-03
         8 -5.610511E-06  1.171233E-15  2.117946E-03
         9 -5.033688E-06  1.043521E-15  1.877616E-03
        10 -6.604371E-06  1.402100E-15  2.563729E-03
        11 -6.135343E-06  1.291018E-15  2.347115E-03
        12 -7.366819E-06  1.596720E-15  2.953711E-03
        13 -7.015415E-06  1.504233E-15  2.766393E-03
        14 -7.892670E-06  1.751005E-15  3.276724E-03
        15 -7.658916E-06  1.679012E-15  3.124285E-03
        16 -8.199166E-06  1.862870E-15  3.521637E-03
        17 -8.071402E-06  1.812303E-15  3.409643E-03
        18 -8.329706E-06  1.931847E-15  3.677167E-03
        19 -8.282732E-06  1.902755E-15  3.611265E-03
        20 -8.357658E-06  1.956727E-15  3.732656E-03
        21 -8.350789E-06  1.949863E-15  3.718144E-03
        22 -8.385610E-06  1.937067E-15  3.677167E-03
        23 -8.364527E-06  1.952418E-15  3.718144E-03
        24 -8.516151E-06  1.873191E-15  3.521637E-03
        25 -8.432585E-06  1.910661E-15  3.611265E-03
        26 -8.822646E-06  1.765604E-15  3.276724E-03
        27 -8.643914E-06  1.824913E-15  3.409643E-03
        28 -9.348497E-06  1.614695E-15  2.953711E-03
        29 -9.056400E-06  1.695268E-15  3.124285E-03
        30 -1.011095E-05  1.422895E-15  2.563729E-03
        31 -9.699901E-06  1.523879E-15  2.766393E-03
        32 -1.110480E-05  1.192753E-15  2.117946E-03
        33 -1.057997E-05  1.312301E-15  2.347115E-03
        34 -1.230621E-05  9.287336E-16  1.627521E-03
        35 -1.168163E-05  1.064806E-15  1.877616E-03
        36 -1.367636E-05  6.359930E-16  1.103615E-03
        37 -1.297306E-05  7.853363E-16  1.369055E-03
        38 -1.516523E-05  3.236435E-16  5.573867E-04
        39 -1.440939E-05  4.818534E-16  8.325938E-04
        40 -1.671532E-05  0.000000E+00  2.646978E-23
        41 -1.593638E-05  1.625047E-16  2.793926E-04

 stresses (elem, integ.pnt.,sxx,syy,szz,sxy,sxz,syz) for set EALL and time  0.1000000E+01

         1   1  1.115825E+00 -2.986587E-02  9.962860E-02  8.918468E-02  1.495573E+00  3.584206E-02
         1   2  3.684909E+00  6.240106E-02  4.445723E-02  6.129382E-02  9.063996E-01 -7.843174E-03
         1   3  6.127881E+00 -1.083206E-01 -1.098906E-01  3.315490E-02  1.542726E+00 -4.582185E-03
         1   4 -1.092928E-02  2.845467E-05  1.827143E-02 -2.110074E-04  1.619656E+00  3.533852E-02
         1   5 -4.289543E-03  3.909696E-05  1.144880E-02  4.884122E-05  1.016019E+00 -8.191446E-03
         1   6 -1.122969E-02 -6.131945E-05  1.809957E-02  6.046531E-05  1.637910E+00 -4.774186E-03
         1   7 -1.134761E+00  2.991630E-02 -6.600708E-02 -8.959821E-02  1.483803E+00  3.483504E-02
         1   8 -3.690303E+00 -6.232205E-02 -2.443216E-02 -6.118073E-02  8.657034E-01 -8.539633E-03
         1   9 -6.146608E+00  1.082673E-01  1.433168E-01 -3.301132E-02  1.473161E+00 -4.966061E-03
         1  10  1.058957E+00 -5.450926E-02  7.434830E-02  1.357857E-12  1.438753E+00 -3.418358E-13
         1  11  3.628266E+00  3.775556E-02  1.894672E-02  7.979596E-13  8.290439E-01  3.127331E-13
         1  12  6.071455E+00 -1.329731E-01 -1.356384E-01  1.078887E-12  1.444833E+00  7.874394E-14
         1  13 -1.029870E-02  2.763826E-05  1.763418E-02  4.327118E-13  1.563022E+00 -2.209790E-13
         1  14 -3.431486E-03  3.638481E-05  1.058141E-02  4.179879E-15  9.388510E-01  1.405136E-13
         1  15 -1.015263E-02 -7.062548E-05  1.699513E-02  3.209590E-13  1.540208E+00  9.019013E-14
         1  16 -1.076633E+00  5.455760E-02 -4.200060E-02 -2.789135E-13  1.427354E+00 -2.131922E-13
         1  17 -3.631950E+00 -3.768287E-02 -6.558538E-04 -7.113303E-13  7.887226E-01  1.109596E-13
         1  18 -6.088040E+00  1.328994E-01  1.668558E-01 -1.925802E-13  1.375650E+00  2.429614E-13
         1  19  1.115825E+00 -2.986587E-02  9.962860E-02 -8.918468E-02  1.495573E+00 -3.584206E-02
         1  20  3.684909E+00  6.240106E-02  4.445723E-02 -6.129382E-02  9.063996E-01  7.843174E-03
         1  21  6.127881E+00 -1.083206E-01 -1.098906E-01 -3.315490E-02  1.542726E+00  4.582185E-03
         1  22 -1.092928E-02  2.845467E-05  1.827143E-02  2.110074E-04  1.619656E+00 -3.533852E-02
         1  23 -4.289543E-03  3.909696E-05  1.144880E-02 -4.884122E-05  1.016019E+00  8.191446E-03
         1  24 -1.122969E-02 -6.131945E-05  1.809957E-02 -6.046531E-05  1.637910E+00  4.774186E-03
         1  25 -1.134761E+00  2.991630E-02 -6.600708E-02  8.959821E-02  1.483803E+00 -3.483504E-02
         1  26 -3.690303E+00 -6.232205E-02 -2.443216E-02  6.118073E-02  8.657034E-01  8.539633E-03
         1  27 -6.146608E+00  1.082673E-01  1.433168E-01  3.301132E-02  1.473161E+00  4.966061E-03
         2   1  8.373570E+00  1.141199E-01  1.397424E-01 -6.403608E-03  1.559212E+00  3.595200E-03
         2   2  1.088595E+01 -4.103778E-03  6.794027E-03  1.080929E-02  9.508856E-01  5.729091E-04
         2   3  1.337938E+01 -1.374431E-01 -1.191011E-01  2.804630E-02  1.582264E+00  2.528249E-04
         2   4 -1.105174E-02  1.412625E-04  1.826305E-02 -5.526668E-05  1.642946E+00  3.620848E-03
         2   5 -4.875603E-03  1.482865E-05  1.091802E-02  6.331145E-06  1.020972E+00  4.947845E-04
         2   6 -1.129978E-02 -1.236354E-04  1.708800E-02  9.145452E-05  1.638788E+00  7.112599E-05
         2   7 -8.391596E+00 -1.138532E-01 -1.060237E-01  6.328570E-03  1.467611E+00  3.646692E-03
         2   8 -1.089055E+01  4.192569E-03  1.242745E-02 -1.075355E-02  8.319927E-01  4.168933E-04
         2   9 -1.339548E+01  1.373876E-01  1.509042E-01 -2.781157E-02  1.436253E+00 -1.102973E-04
         2  10  8.387747E+00  1.196984E-01  1.441746E-01  1.335894E-12  1.456801E+00  3.825532E-13
         2  11  1.090006E+01  1.464542E-03  1.127240E-02  8.225235E-13  8.531548E-01  1.215550E-13
         2  12  1.339343E+01 -1.318878E-01 -1.145823E-01  1.061010E-12  1.489213E+00 -4.242081E-13
         2  13 -9.988848E-03  1.006961E-04  1.707529E-02  4.082445E-13  1.540504E+00 -4.591311E-13
         2  14 -3.874821E-03 -3.595450E-05  9.776398E-03 -1.045546E-13  9.232128E-01 -2.582241E-15
         2  15 -1.036607E-02 -1.874218E-04  1.598677E-02  3.126899E-13  1.545712E+00 -1.937722E-13
         2  16 -8.403645E+00 -1.195142E-01 -1.128313E-01 -2.648319E-13  1.365138E+00 -1.429964E-14
         2  17 -1.090266E+01 -1.478620E-03  5.666131E-03 -6.902636E-13  7.342052E-01 -6.991964E-14
         2  18 -1.340766E+01  1.317034E-01  1.441833E-01 -9.406011E-14  1.343151E+00 -2.869497E-14
         2  19  8.373570E+00  1.141199E-01  1.397424E-01  6.403608E-03  1.559212E+00 -3.595200E-03
         2  20  1.088595E+01 -4.103778E-03  6.794027E-03 -1.080929E-02  9.508856E-01 -5.729091E-04
         2  21  1.337938E+01 -1.374431E-01 -1.191011E-01 -2.804630E-02  1.582264E+00 -2.528249E-04
         2  22 -1.105174E-02  1.412625E-04  1.826305E-02  5.526668E-05  1.642946E+00 -3.620848E-03
         2  23 -4.875603E-03  1.482865E-05  1.091802E-02 -6.331145E-06  1.020972E+00 -4.947845E-04
         2  24 -1.129978E-02 -1.236354E-04  1.708800E-02 -9.145452E-05  1.638788E+00 -7.112599E-05
         2  25 -8.391596E+00 -1.138532E-01 -1.060237E-01 -6.328570E-03  1.467611E+00 -3.646692E-03
         2  26 -1.089055E+01  4.192569E-03  1.242745E-02  1.075355E-02  8.319927E-01 -4.168933E-04
         2  27 -1.339548E+01  1.373876E-01  1.509042E-01  2.781157E-02  1.436253E+00  1.102973E-04
         3   1  1.564554E+01  1.318083E-01  1.506200E-01  2.921864E-02  1.592127E+00  3.554536E-04
         3   2  1.815446E+01  2.132749E-03  1.080552E-02  2.622808E-02  9.838618E-01 -1.538559E-04
         3   3  2.065130E+01 -1.317257E-01 -1.175763E-01  2.329726E-02  1.616585E+00  1.228384E-04
         3   4 -1.083219E-02  2.820583E-04  1.730328E-02 -9.773361E-05  1.638781E+00  1.597028E-04
         3   5 -5.912885E-03 -3.101740E-05  9.723404E-03  1.667993E-05  1.018736E+00 -3.449364E-04
         3   6 -1.132904E-02 -1.568879E-04  1.543788E-02  1.908772E-04  1.639826E+00 -6.376966E-05
         3   7 -1.565999E+01 -1.312316E-01 -1.184858E-01 -2.934402E-02  1.425607E+00 -3.567600E-05
         3   8 -1.815718E+01 -2.037753E-03  6.507568E-03 -2.611907E-02  7.937919E-01 -5.356292E-04
         3   9 -2.066269E+01  1.317705E-01  1.467057E-01 -2.283443E-02  1.403256E+00 -2.499750E-04
         3  10  1.564306E+01  1.302830E-01  1.480727E-01  1.413970E-12  1.500189E+00  1.058691E-14
         3  11  1.815197E+01  5.884715E-04  8.231519E-03  7.350569E-13  8.907533E-01  2.656498E-13
         3  12  2.064880E+01 -1.332929E-01 -1.201838E-01  1.026824E-12  1.522306E+00  2.042318E-13
         3  13 -1.003955E-02  1.584526E-04  1.615711E-02  3.121537E-13  1.546871E+00 -5.611232E-13
         3  14 -5.127874E-03 -1.735967E-04  8.550572E-03 -1.154226E-13  9.256592E-01  4.524224E-13
         3  15 -1.055922E-02 -3.223806E-04  1.423161E-02  2.988553E-13  1.545581E+00  4.266582E-13
         3  16 -1.565593E+01 -1.299548E-01 -1.182305E-01 -2.849550E-13  1.333726E+00  8.526393E-13
         3  17 -1.815313E+01 -7.798863E-04  6.736246E-03 -5.448454E-13  7.007460E-01  3.864364E-13
         3  18 -2.065865E+01  1.330055E-01  1.469009E-01 -2.185770E-14  1.309045E+00  8.694845E-13
         3  19  1.564554E+01  1.318083E-01  1.506200E-01 -2.921864E-02  1.592127E+00 -3.554536E-04
         3  20  1.815446E+01  2.132749E-03  1.080552E-02 -2.622808E-02  9.838618E-01  1.538559E-04
         3  21  2.065130E+01 -1.317257E-01 -1.175763E-01 -2.329726E-02  1.616585E+00 -1.228384E-04
         3  22 -1.083219E-02  2.820583E-04  1.730328E-02  9.773361E-05  1.638781E+00 -1.597028E-04
         3  23 -5.912885E-03 -3.101740E-05  9.723404E-03 -1.667993E-05  1.018736E+00  3.449364E-04
         3  24 -1.132904E-02 -1.568879E-04  1.543788E-02 -1.908772E-04  1.639826E+00  6.376966E-05
         3  25 -1.565999E+01 -1.312316E-01 -1.184858E-01  2.934402E-02  1.425607E+00  3.567600E-05
         3  26 -1.815718E+01 -2.037753E-03  6.507568E-03  2.611907E-02  7.937919E-01  5.356292E-04
         3  27 -2.066269E+01  1.317705E-01  1.467057E-01  2.283443E-02  1.403256E+00  2.499750E-04
         4   1  2.290854E+01  1.332348E-01  1.477265E-01  2.184404E-02  1.625811E+00  3.284210E-04
         4   2  2.541507E+01 -4.031770E-04  7.571450E-03  2.299494E-02  1.013985E+00  2.348739E-04
         4   3  2.791495E+01 -1.332420E-01 -1.194952E-01  2.423572E-02  1.643187E+00  9.113185E-05
         4   4 -1.062550E-02  4.528472E-04  1.576402E-02 -1.977553E-04  1.639897E+00  1.388326E-04
         4   5 -7.503410E-03 -9.789964E-05  7.979044E-03  2.061781E-05  1.019152E+00  2.278991E-05
         4   6 -1.129973E-02 -1.632895E-04  1.313623E-02  3.287887E-04  1.639638E+00 -1.438249E-04
         4   7 -2.291747E+01 -1.322397E-01 -1.180781E-01 -2.214118E-02  1.394565E+00 -5.026954E-05
         4   8 -2.541507E+01  5.141080E-04  6.991775E-03 -2.284911E-02  7.649094E-01 -1.888030E-04
         4   9 -2.791956E+01  1.334955E-01  1.449059E-01 -2.346728E-02  1.376688E+00 -3.782860E-04
         4  10  2.290997E+01  1.333413E-01  1.467915E-01  8.534892E-13  1.531182E+00  3.631947E-13
         4  11  2.541647E+01 -3.235383E-04  6.619921E-03  5.397829E-13  9.196565E-01 -1.261102E-12
         4  12  2.791631E+01 -1.331926E-01 -1.204696E-01  1.150661E-12  1.549159E+00  9.276194E-14
         4  13 -1.004742E-02  1.961458E-04  1.446536E-02  1.978862E-13  1.545293E+00 -7.401638E-13
         4  14 -6.957554E-03 -3.814263E-04  6.663810E-03 -1.299700E-13  9.248512E-01  1.239880E-12
         4  15 -1.079255E-02 -4.770526E-04  1.179812E-02  1.910623E-13  1.545640E+00 -1.552441E-12
         4  16 -2.291774E+01 -1.328608E-01 -1.197402E-01 -2.189970E-13  1.299985E+00 -9.339933E-14
         4  17 -2.541537E+01 -1.338546E-04  5.313162E-03 -4.306057E-13  6.706358E-01 -6.047277E-13
         4  18 -2.791991E+01  1.328173E-01  1.432044E-01 -4.776596E-13  1.282720E+00  5.486251E-13
         4  19  2.290854E+01  1.332348E-01  1.477265E-01 -2.184404E-02  1.625811E+00 -3.284210E-04
         4  20  2.541507E+01 -4.031770E-04  7.571450E-03 -2.299494E-02  1.013985E+00 -2.348739E-04
         4  21  2.791495E+01 -1.332420E-01 -1.194952E-01 -2.423572E-02  1.643187E+00 -9.113184E-05
         4  22 -1.062550E-02  4.528472E-04  1.576402E-02  1.977553E-04  1.639897E+00 -1.388326E-04
         4  23 -7.503410E-03 -9.789964E-05  7.979044E-03 -2.061781E-05  1.019152E+00 -2.278991E-05
         4  24 -1.129973E-02 -1.632895E-04  1.313623E-02 -3.287887E-04  1.639638E+00  1.438249E-04
         4  25 -2.291747E+01 -1.322397E-01 -1.180781E-01  2.214118E-02  1.394565E+00  5.026954E-05
         4  26 -2.541507E+01  5.141080E-04  6.991775E-03  2.284911E-02  7.649094E-01  1.888030E-04
         4  27 -2.791956E+01  1.334955E-01  1.449059E-01  2.346728E-02  1.376688E+00  3.782860E-04
         5   1  3.017459E+01  1.338253E-01  1.470678E-01  2.358418E-02  1.650230E+00  1.296083E-04
         5   2  3.267929E+01  4.928949E-04  5.840256E-03  2.346643E-02  1.034733E+00  4.943107E-04
         5   3  3.518164E+01 -1.322732E-01 -1.230371E-01  2.346357E-02  1.660341E+00  9.217746E-04
         5   4 -1.035967E-02  6.495700E-04  1.357154E-02 -3.372446E-04  1.639675E+00 -1.178389E-04
         5   5 -9.611208E-03 -1.866738E-04  5.651943E-03  2.728250E-05  1.019072E+00  2.249829E-04
         5   6 -1.122356E-02 -1.381359E-04  1.020595E-02  5.066216E-04  1.639836E+00  6.302516E-04
         5   7 -3.017591E+01 -1.323070E-01 -1.209746E-01 -2.412920E-02  1.369364E+00 -3.647125E-04
         5   8 -3.267562E+01 -3.645133E-04  5.042645E-03 -2.327658E-02  7.436637E-01 -4.378842E-05
         5   9 -3.517740E+01  1.328376E-01  1.437052E-01 -2.230926E-02  1.359591E+00  3.392673E-04
         5  10  3.017437E+01  1.331903E-01  1.454148E-01  5.303368E-13  1.556398E+00 -6.981616E-13
         5  11  3.267904E+01 -1.768374E-04  4.160056E-03  3.794323E-13  9.407316E-01 -2.590502E-12
         5  12  3.518134E+01 -1.329813E-01 -1.247510E-01  5.522671E-13  1.566170E+00 -1.924598E-12
         5  13 -1.011175E-02  2.158405E-04  1.211933E-02  2.010551E-13  1.545880E+00 -4.262227E-13
         5  14 -9.399918E-03 -6.551332E-04  4.172520E-03 -1.209595E-13  9.251099E-01 -1.201033E-12
         5  15 -1.105588E-02 -6.449706E-04  8.692787E-03  1.088186E-13  1.545706E+00 -7.222827E-14
         5  16 -3.017520E+01 -1.325407E-01 -1.222257E-01  1.216167E-13  1.275605E+00  2.660451E-13
         5  17 -3.267494E+01 -6.329667E-04  3.764325E-03 -2.599279E-13  6.497405E-01 -7.695177E-13
         5  18 -3.517677E+01  1.325308E-01  1.423932E-01  6.864935E-14  1.265504E+00  1.132260E-13
         5  19  3.017459E+01  1.338253E-01  1.470678E-01 -2.358418E-02  1.650230E+00 -1.296083E-04
         5  20  3.267929E+01  4.928949E-04  5.840256E-03 -2.346643E-02  1.034733E+00 -4.943107E-04
         5  21  3.518164E+01 -1.322732E-01 -1.230371E-01 -2.346357E-02  1.660341E+00 -9.217746E-04
         5  22 -1.035967E-02  6.495700E-04  1.357154E-02  3.372446E-04  1.639675E+00  1.178389E-04
         5  23 -9.611208E-03 -1.866738E-04  5.651943E-03 -2.728250E-05  1.019072E+00 -2.249829E-04
         5  24 -1.122356E-02 -1.381359E-04  1.020595E-02 -5.066216E-04  1.639836E+00 -6.302516E-04
         5  25 -3.017591E+01 -1.323070E-01 -1.209746E-01  2.412920E-02  1.369364E+00  3.647125E-04
         5  26 -3.267562E+01 -3.645133E-04  5.042645E-03  2.327658E-02  7.436637E-01  4.378842E-05
         5  27 -3.517740E+01  1.328376E-01  1.437052E-01  2.230926E-02  1.359591E+00 -3.392673E-04
         6   1  3.744058E+01  1.338208E-01  1.435925E-01  2.304270E-02  1.665636E+00  6.824752E-04
         6   2  3.994262E+01 -1.187449E-03  5.333753E-03  2.465139E-02  1.045260E+00 -6.862623E-04
         6   3  4.244849E+01 -1.339930E-01 -1.206791E-01  2.640165E-02  1.665640E+00 -2.196321E-03
         6   4 -1.004638E-02  8.787511E-04  1.075179E-02 -5.177532E-04  1.639699E+00  3.744443E-04
         6   5 -1.223593E-02 -2.936971E-04  2.758254E-03  3.300002E-05  1.019005E+00 -1.022572E-03
         6   6 -1.109048E-02 -8.912296E-05  6.641280E-03  7.251449E-04  1.639387E+00 -2.561428E-03
         6   7 -3.743223E+01 -1.316642E-01 -1.220465E-01 -2.392012E-02  1.355095E+00  6.700925E-05
         6   8 -3.993434E+01  1.361709E-03  1.001337E-03 -2.442084E-02  7.340916E-01 -1.358322E-03
         6   9 -4.243332E+01  1.349949E-01  1.356042E-01 -2.478029E-02  1.354482E+00 -2.926012E-03
         6  10  3.744145E+01  1.335968E-01  1.423625E-01  8.648290E-13  1.570951E+00 -7.768586E-13
         6  11  3.994343E+01 -1.456087E-03  4.070549E-03  2.994514E-13  9.509373E-01 -3.708106E-14
         6  12  4.244925E+01 -1.343096E-01 -1.219818E-01 -3.037038E-13  1.571680E+00 -8.877266E-13
         6  13 -1.020589E-02  2.174139E-04  9.083978E-03 -6.378582E-14  1.545057E+00 -1.262717E-12
         6  14 -1.244750E-02 -9.996885E-04  1.057179E-03 -1.164546E-13  9.247281E-01 -1.909421E-13
         6  15 -1.136025E-02 -8.430507E-04  4.900735E-03  2.341835E-13  1.545475E+00 -1.177000E-12
         6  16 -3.743341E+01 -1.327642E-01 -1.241518E-01  2.382286E-14  1.260496E+00  1.124019E-12
         6  17 -3.993557E+01  2.170972E-04 -1.137277E-03 -2.111226E-13  6.398598E-01  1.218804E-12
         6  18 -4.243461E+01  1.338023E-01  1.334261E-01  6.107700E-13  1.260618E+00 -9.422525E-13
         6  19  3.744058E+01  1.338208E-01  1.435925E-01 -2.304270E-02  1.665636E+00 -6.824752E-04
         6  20  3.994262E+01 -1.187449E-03  5.333753E-03 -2.465139E-02  1.045260E+00  6.862623E-04
         6  21  4.244849E+01 -1.339930E-01 -1.206791E-01 -2.640165E-02  1.665640E+00  2.196321E-03
         6  22 -1.004638E-02  8.787511E-04  1.075179E-02  5.177532E-04  1.639699E+00 -3.744443E-04
         6  23 -1.223593E-02 -2.936971E-04  2.758254E-03 -3.300002E-05  1.019005E+00  1.022572E-03
         6  24 -1.109048E-02 -8.912297E-05  6.641280E-03 -7.251449E-04  1.639387E+00  2.561428E-03
         6  25 -3.743223E+01 -1.316642E-01 -1.220465E-01  2.392012E-02  1.355095E+00 -6.700925E-05
         6  26 -3.993434E+01  1.361709E-03  1.001337E-03  2.442084E-02  7.340916E-01  1.358322E-03
         6  27 -4.243332E+01  1.349949E-01  1.356042E-01  2.478029E-02  1.354482E+00  2.926012E-03
         7   1  4.471025E+01  1.351962E-01  1.445748E-01  2.258173E-02  1.666171E+00 -1.090061E-03
         7   2  4.720957E+01  4.720569E-03 -5.914100E-03  1.999134E-02  1.040125E+00  4.632594E-03
         7   3  4.971821E+01 -1.261180E-01 -1.461939E-01  1.756528E-02  1.656036E+00  1.078168E-02
         7   4 -9.671671E-03  1.131011E-03  7.301501E-03 -7.360068E-04  1.639936E+00 -1.466930E-03
         7   5 -1.537853E-02 -4.287394E-04 -7.175963E-04  4.213159E-05  1.019290E+00  4.223574E-03
         7   6 -1.090761E-02  5.674068E-06  2.462754E-03  9.844910E-04  1.640980E+00  1.034073E-02
         7   7 -4.469014E+01 -1.323196E-01 -1.286580E-01 -2.386370E-02  1.350797E+00 -1.843232E-03
         7   8 -4.719576E+01 -4.552975E-03  6.716600E-03 -1.971290E-02  7.355528E-01  3.815040E-03
         7   9 -4.969005E+01  1.276224E-01  1.543306E-01 -1.539817E-02  1.363025E+00  9.900195E-03
         7  10  4.470635E+01  1.328800E-01  1.412941E-01  7.032966E-13  1.574250E+00 -3.162047E-13
         7  11  4.720563E+01  2.357093E-03 -9.232774E-03  3.014273E-14  9.470423E-01  2.089455E-12
         7  12  4.971422E+01 -1.285333E-01 -1.495579E-01  9.656485E-14  1.561790E+00  1.605789E-12
         7  13 -1.031858E-02  2.076612E-04  5.413146E-03  4.733922E-13  1.548071E+00 -3.323012E-13
         7  14 -1.607088E-02 -1.399340E-03 -2.643960E-03  7.908146E-14  9.262651E-01  2.482079E-12
         7  15 -1.165440E-02 -1.016705E-03  4.910846E-04  1.760046E-13  1.546796E+00  1.326984E-12
         7  16 -4.468754E+01 -1.318513E-01 -1.291537E-01 -6.824399E-13  1.258989E+00 -1.478248E-12
         7  17 -4.719321E+01 -4.131968E-03  6.182856E-03 -2.771682E-13  6.425867E-01 -2.067942E-14
         7  18 -4.968755E+01  1.279916E-01  1.537515E-01  2.521090E-13  1.268901E+00  9.292358E-13
         7  19  4.471025E+01  1.351962E-01  1.445748E-01 -2.258173E-02  1.666171E+00  1.090061E-03
         7  20  4.720957E+01  4.720569E-03 -5.914100E-03 -1.999134E-02  1.040125E+00 -4.632594E-03
         7  21  4.971821E+01 -1.261180E-01 -1.461939E-01 -1.756528E-02  1.656036E+00 -1.078168E-02
         7  22 -9.671671E-03  1.131011E-03  7.301501E-03  7.360068E-04  1.639936E+00  1.466930E-03
         7  23 -1.537853E-02 -4.287394E-04 -7.175963E-04 -4.213159E-05  1.019290E+00 -4.223574E-03
         7  24 -1.090761E-02  5.674067E-06  2.462754E-03 -9.844910E-04  1.640980E+00 -1.034073E-02
         7  25 -4.469014E+01 -1.323196E-01 -1.286580E-01  2.386370E-02  1.350797E+00  1.843232E-03
         7  26 -4.719576E+01 -4.552975E-03  6.716600E-03  1.971290E-02  7.355528E-01 -3.815040E-03
         7  27 -4.969005E+01  1.276224E-01  1.543306E-01  1.539817E-02  1.363025E+00 -9.900195E-03
         8   1  5.197315E+01  1.328574E-01  1.263312E-01  2.466492E-02  1.661311E+00  6.330362E-03
         8   2  5.446732E+01 -1.729088E-02  2.617119E-02  3.576853E-02  1.028938E+00 -1.667490E-02
         8   3  5.698439E+01 -1.540202E-01 -5.906078E-02  4.707235E-02  1.633304E+00 -4.159836E-02
         8   4 -9.262427E-03  1.432644E-03  3.226950E-03 -9.994353E-04  1.638781E+00  5.847446E-03
         8   5 -1.901946E-02 -5.453606E-04 -4.707161E-03  3.294017E-05  1.018595E+00 -1.720101E-02
         8   6 -1.064267E-02  1.086846E-04 -2.359831E-03  1.265025E-03  1.635572E+00 -4.217068E-02
         8   7 -5.193916E+01 -1.290443E-01 -1.168136E-01 -2.644169E-02  1.370725E+00  5.364978E-03
         8   8 -5.444693E+01  1.765665E-02 -3.149672E-02 -3.546849E-02  7.627207E-01 -1.772674E-02
         8   9 -5.694106E+01  1.562522E-01  5.949742E-02 -4.429560E-02  1.392301E+00 -4.274271E-02
         8  10  5.198207E+01  1.359322E-01  1.284114E-01  5.804679E-13  1.558563E+00  1.038411E-12
         8  11  5.447614E+01 -1.428742E-02  2.819887E-02 -1.230694E-13  9.298132E-01  6.705422E-13
         8  12  5.699312E+01 -1.510880E-01 -5.708910E-02 -1.221979E-13  1.537802E+00 -3.637669E-13
         8  13 -1.050591E-02  1.577868E-04  9.569290E-04  2.475115E-13  1.536091E+00 -4.729802E-13
         8  14 -2.035864E-02 -1.891516E-03 -7.029813E-03  6.759402E-15  9.195300E-01  1.335050E-12
         8  15 -1.207622E-02 -1.308758E-03 -4.738586E-03  2.484280E-13  1.540132E+00 -4.013741E-13
         8  16 -5.195054E+01 -1.346701E-01 -1.234336E-01 -3.666806E-13  1.268092E+00 -1.058498E-12
         8  17 -5.445841E+01  1.195958E-02 -3.816932E-02 -1.858534E-13  6.637148E-01  1.768175E-13
         8  18 -5.695264E+01  1.504839E-01  5.276866E-02  2.996056E-13  1.296922E+00  2.306416E-12
         8  19  5.197315E+01  1.328574E-01  1.263312E-01 -2.466492E-02  1.661311E+00 -6.330362E-03
         8  20  5.446732E+01 -1.729088E-02  2.617119E-02 -3.576853E-02  1.028938E+00  1.667490E-02
         8  21  5.698439E+01 -1.540202E-01 -5.906078E-02 -4.707235E-02  1.633304E+00  4.159836E-02
         8  22 -9.262426E-03  1.432644E-03  3.226950E-03  9.994353E-04  1.638781E+00 -5.847446E-03
         8  23 -1.901946E-02 -5.453606E-04 -4.707161E-03 -3.294017E-05  1.018595E+00  1.720101E-02
         8  24 -1.064267E-02  1.086846E-04 -2.359831E-03 -1.265025E-03  1.635572E+00  4.217068E-02
         8  25 -5.193916E+01 -1.290443E-01 -1.168136E-01  2.644169E-02  1.370725E+00 -5.364978E-03
         8  26 -5.444693E+01  1.765665E-02 -3.149672E-02  3.546849E-02  7.627207E-01  1.772674E-02
         8  27 -5.694106E+01  1.562522E-01  5.949742E-02  4.429560E-02  1.392301E+00  4.274271E-02
         9   1  5.926334E+01  1.385049E-01  1.801291E-01  1.437882E-02  1.601212E+00 -2.227222E-02
         9   2  6.175218E+01  5.963436E-02 -1.279263E-01 -1.579483E-02  9.579405E-01  7.126851E-02
         9   3  6.426568E+01 -2.222746E-02 -4.291794E-01 -4.577044E-02  1.570433E+00  1.660053E-01
         9   4 -8.736499E-03  1.708625E-03 -1.469642E-03 -1.282881E-03  1.643721E+00 -2.281291E-02
         9   5 -2.326250E-02 -8.347335E-04 -9.449040E-03  1.014778E-04  1.020083E+00  7.071852E-02
         9   6 -1.041754E-02  3.255509E-04 -7.795908E-03  1.684597E-03  1.652763E+00  1.654512E-01
         9   7 -5.921354E+01 -1.339996E-01 -1.787370E-01 -1.672101E-02  1.370139E+00 -2.335340E-02
         9   8 -6.172455E+01 -5.962004E-02  1.147977E-01  1.620253E-02  7.661183E-01  7.016853E-02
         9   9 -6.420519E+01  2.521715E-02  4.208583E-01  4.932355E-02  1.418965E+00  1.648970E-01
         9  10  5.923306E+01  1.247802E-01  1.656022E-01  2.684784E-13  1.541038E+00 -2.503795E-13
         9  11  6.172187E+01  4.586726E-02 -1.424908E-01  4.658270E-14  8.876031E-01  7.126701E-13
         9  12  6.423532E+01 -3.605128E-02 -4.437973E-01  7.227934E-14  1.489931E+00  1.106120E-13
         9  13 -1.054334E-02  1.764766E-04 -3.804686E-03 -1.281102E-13  1.583608E+00 -7.551182E-13
         9  14 -2.508863E-02 -2.409125E-03 -1.182165E-02 -7.867342E-14  9.498108E-01 -2.688236E-12
         9  15 -1.229480E-02 -1.305387E-03 -1.022183E-02  2.350117E-14  1.572330E+00  8.146659E-13
         9  16 -5.918693E+01 -1.233402E-01 -1.688800E-01 -6.905346E-14  1.310087E+00  1.962513E-12
         9  17 -6.169796E+01 -4.900297E-02  1.246170E-01  9.536995E-14  6.959102E-01  9.146842E-13
         9  18 -6.417865E+01  3.577753E-02  4.306242E-01 -1.498205E-13  1.338601E+00  2.149943E-12
         9  19  5.926334E+01  1.385049E-01  1.801291E-01 -1.437882E-02  1.601212E+00  2.227222E-02
         9  20  6.175218E+01  5.963436E-02 -1.279263E-01  1.579483E-02  9.579405E-01 -7.126851E-02
         9  21  6.426568E+01 -2.222746E-02 -4.291794E-01  4.577044E-02  1.570433E+00 -1.660053E-01
         9  22 -8.736499E-03  1.708625E-03 -1.469642E-03  1.282881E-03  1.643721E+00  2.281291E-02
         9  23 -2.326250E-02 -8.347335E-04 -9.449040E-03 -1.014778E-04  1.020083E+00 -7.071852E-02
         9  24 -1.041754E-02  3.255509E-04 -7.795908E-03 -1.684597E-03  1.652763E+00 -1.654512E-01
         9  25 -5.921354E+01 -1.339996E-01 -1.787370E-01  1.672101E-02  1.370139E+00  2.335340E-02
         9  26 -6.172455E+01 -5.962004E-02  1.147977E-01 -1.620253E-02  7.661183E-01 -7.016853E-02
         9  27 -6.420519E+01  2.521715E-02  4.208583E-01 -4.932355E-02  1.418965E+00 -1.648970E-01
        10   1  6.649596E+01  1.354209E-01 -4.251818E-02  8.684685E-02  1.668142E+00  9.437222E-02
        10   2  6.894125E+01 -2.504418E-01  4.703498E-01  1.257098E-01  1.046841E+00 -2.800382E-01
        10   3  7.154466E+01 -3.511797E-01  1.112326E+00  1.648991E-01  1.588925E+00 -7.043955E-01
        10   4 -7.948148E-03  2.201050E-03 -6.850280E-03 -1.549501E-03  1.617812E+00  9.363713E-02
        10   5 -2.770560E-02 -9.062071E-04 -1.444254E-02 -1.672846E-04  1.025215E+00 -2.809261E-01
        10   6 -9.519531E-03  1.133173E-03 -1.294466E-02  1.540935E-03  1.596298E+00 -7.055008E-01
        10   7 -6.642769E+01 -1.292406E-01  3.630440E-02 -8.954276E-02  1.535791E+00  9.290206E-02
        10   8 -6.890557E+01  2.511378E-01 -4.913053E-01 -1.256333E-01  9.718650E-01 -2.818143E-01
        10   9 -7.146546E+01  3.565087E-01 -1.129922E+00 -1.613989E-01  1.571909E+00 -7.066068E-01
        10  10  6.656094E+01  1.622535E-01 -1.678466E-02 -3.230252E-13  1.442081E+00 -2.566185E-13
        10  11  6.900611E+01 -2.237065E-01  4.960564E-01  6.333155E-15  8.449919E-01  9.488983E-13
        10  12  7.160945E+01 -3.245181E-01  1.138008E+00  4.789136E-13  1.411292E+00  1.879617E-12
        10  13 -1.083333E-02 -2.043339E-05 -1.017191E-02  4.183908E-14  1.391915E+00 -2.303398E-13
        10  14 -3.071736E-02 -3.225390E-03 -1.779176E-02  9.440169E-14  8.235314E-01  1.218026E-13
        10  15 -1.260118E-02 -1.260049E-03 -1.631940E-02  3.867866E-14  1.418827E+00  1.382810E-12
        10  16 -6.649830E+01 -1.605199E-01  3.926091E-03  1.384871E-14  1.310058E+00  3.257505E-13
        10  17 -6.897630E+01  2.197613E-01 -5.237110E-01  3.263039E-14  7.703465E-01 -8.707742E-13
        10  18 -7.153626E+01  3.250583E-01 -1.162353E+00 -7.619622E-13  1.394601E+00  1.339654E-13
        10  19  6.649596E+01  1.354209E-01 -4.251818E-02 -8.684685E-02  1.668142E+00 -9.437222E-02
        10  20  6.894125E+01 -2.504418E-01  4.703498E-01 -1.257098E-01  1.046841E+00  2.800382E-01
        10  21  7.154466E+01 -3.511797E-01  1.112326E+00 -1.648991E-01  1.588925E+00  7.043955E-01
        10  22 -7.948148E-03  2.201050E-03 -6.850280E-03  1.549501E-03  1.617812E+00 -9.363713E-02
        10  23 -2.770560E-02 -9.062071E-04 -1.444254E-02  1.672846E-04  1.025215E+00  2.809261E-01
        10  24 -9.519531E-03  1.133173E-03 -1.294466E-02 -1.540935E-03  1.596298E+00  7.055008E-01
        10  25 -6.642769E+01 -1.292406E-01  3.630440E-02  8.954276E-02  1.535791E+00 -9.290206E-02
        10  26 -6.890557E+01  2.511378E-01 -4.913053E-01  1.256333E-01  9.718650E-01  2.818143E-01
        10  27 -7.146546E+01  3.565087E-01 -1.129922E+00  1.613989E-01  1.571909E+00  7.066068E-01
        11   1  7.154466E+01 -3.511797E-01  1.112326E+00 -1.648991E-01 -1.588925E+00 -7.043955E-01
        11   2  6.894125E+01 -2.504418E-01  4.703498E-01 -1.257098E-01 -1.046841E+00 -2.800382E-01
        11   3  6.649596E+01  1.354209E-01 -4.251818E-02 -8.684685E-02 -1.668142E+00  9.437222E-02
        11   4 -9.519531E-03  1.133173E-03 -1.294466E-02 -1.540935E-03 -1.596298E+00 -7.055008E-01
        11   5 -2.770560E-02 -9.062071E-04 -1.444254E-02  1.672846E-04 -1.025215E+00 -2.809261E-01
        11   6 -7.948148E-03  2.201050E-03 -6.850280E-03  1.549501E-03 -1.617812E+00  9.363713E-02
        11   7 -7.146546E+01  3.565087E-01 -1.129922E+00  1.613989E-01 -1.571909E+00 -7.066068E-01
        11   8 -6.890557E+01  2.511378E-01 -4.913053E-01  1.256333E-01 -9.718650E-01 -2.818143E-01
        11   9 -6.642769E+01 -1.292406E-01  3.630440E-02  8.954276E-02 -1.535791E+00  9.290206E-02