    1C
    1UUSER                                                              
    1UDATE              24.november.2019                                
    1UTIME              19:38:42                                        
    1UHOST                                                              
    1UPGM               CalculiX                                        
    1UVERSION           Version 2.16                             
    1UCOMPILETIME       So 24. Nov 18:30:58 CET 2019                    
    1UDIR                                                               
    1UDBN                                                               
    1UMAT    1EL                                                        
    2C                            12                                     1
 -1         1 1.00000E+02 0.00000E+00 0.00000E+00
 -1         2 0.00000E+00 0.00000E+00 0.00000E+00
 -1         3 0.00000E+00 1.00000E+02 0.00000E+00
 -1         4 1.00000E+02 1.00000E+02 0.00000E+00
 -1         5 2.00000E+02 1.00000E+02 0.00000E+00
 -1         6 2.00000E+02 0.00000E+00 0.00000E+00
 -1         7 1.00000E+02 0.00000E+00-1.00000E+02
 -1         8 1.00000E+02 1.00000E+02-1.00000E+02
 -1         9 0.00000E+00 1.00000E+02-1.00000E+02
 -1        10 0.00000E+00 0.00000E+00-1.00000E+02
 -1        11 2.00000E+02 0.00000E+00-1.00000E+02
 -1        12 2.00000E+02 1.00000E+02-1.00000E+02
 -3
    3C                             2                                     1
 -1         1    1    0    1
 -2         6         1         4         5        11         7         8        12
 -1         2    1    0    1
 -2         1         2         3         4         7        10         9         8
 -3
    1PSTEP                         1           1           1          
    1PGM                1.000000E+00                                  
    1PGK                3.337849E+08                                  
    1PHID                         -1                                  
    1PSUBC                         0                                  
    1PMODE                         1                                  
  100CL  101 2907.726044          12                     2    1MODAL      1
 -4  DISP        4    1
 -5  D1          1    2    1    0
 -5  D2          1    2    2    0
 -5  D3          1    2    3    0
 -5  ALL         1    2    0    0    1ALL
 -1         1 3.31451E+00 5.82286E+00-5.46427E-01
 -1         2 0.00000E+00 0.00000E+00 0.00000E+00
 -1         3 0.00000E+00 0.00000E+00 0.00000E+00
 -1         4-3.31451E+00 5.82286E+00 5.46427E-01
 -1         5-4.27017E+00 1.46126E+01 3.08641E-02
 -1         6 4.27017E+00 1.46126E+01-3.08641E-02
 -1         7 3.31451E+00 5.82286E+00 5.46427E-01
 -1         8-3.31451E+00 5.82286E+00-5.46427E-01
 -1         9 0.00000E+00 0.00000E+00 0.00000E+00
 -1        10 0.00000E+00 0.00000E+00 0.00000E+00
 -1        11 4.27017E+00 1.46126E+01 3.08641E-02
 -1        12-4.27017E+00 1.46126E+01-3.08641E-02
 -3
    1PSTEP                         2           1           1          
    1PGM                1.000000E+00                                  
    1PGK                3.360057E+08                                  
    1PHID                         -1                                  
    1PSUBC                         0                                  
    1PMODE                         2                                  
  100CL  102 2917.383012          12                     2    2MODAL      1
 -4  DISP        4    1
 -5  D1          1    2    1    0
 -5  D2          1    2    2    0
 -5  D3          1    2    3    0
 -5  ALL         1    2    0    0    1ALL
 -1         1-3.31059E+00-4.47591E-01 5.83696E+00
 -1         2 0.00000E+00 0.00000E+00 0.00000E+00
 -1         3 0.00000E+00 0.00000E+00 0.00000E+00
 -1         4-3.31059E+00 4.47591E-01 5.83696E+00
 -1         5-4.24149E+00 1.18824E-02 1.46019E+01
 -1         6-4.24149E+00-1.18824E-02 1.46019E+01
 -1         7 3.31059E+00 4.47591E-01 5.83696E+00
 -1         8 3.31059E+00-4.47591E-01 5.83696E+00
 -1         9 0.00000E+00 0.00000E+00 0.00000E+00
 -1        10 0.00000E+00 0.00000E+00 0.00000E+00
 -1        11 4.24149E+00 1.18824E-02 1.46019E+01
 -1        12 4.24149E+00-1.18824E-02 1.46019E+01
 -3
    1PSTEP                         3           1           1          
    1PGM                1.000000E+00                                  
    1PGK                1.050316E+09                                  
    1PHID                         -1                                  
    1PSUBC                         0                                  
    1PMODE                         3                                  
  100CL  103 5157.985274          12                     2    3MODAL      1
 -4  DISP        4    1
 -5  D1          1    2    1    0
 -5  D2          1    2    2    0
 -5  D3          1    2    3    0
 -5  ALL         1    2    0    0    1ALL
 -1         1-1.77636E-15 1.03227E+01 1.03227E+01
 -1         2 0.00000E+00 0.00000E+00 0.00000E+00
 -1         3 0.00000E+00 0.00000E+00 0.00000E+00
 -1         4-8.88178E-16 1.03227E+01-1.03227E+01
 -1         5-3.55271E-15 1.45984E+01-1.45984E+01
 -1         6-4.44089E-15 1.45984E+01 1.45984E+01
 -1         7 2.53597E-31-1.03227E+01 1.03227E+01
 -1         8-6.66134E-16-1.03227E+01-1.03227E+01
 -1         9 0.00000E+00 0.00000E+00 0.00000E+00
 -1        10 0.00000E+00 0.00000E+00 0.00000E+00
 -1        11 3.55271E-15-1.45984E+01 1.45984E+01
 -1        12-2.66454E-15-1.45984E+01-1.45984E+01
 -3
    1PSTEP                         4           1           1          
    1PGM                1.000000E+00                                  
    1PGK                3.603524E+09                                  
    1PHID                         -1                                  
    1PSUBC                         0                                  
    1PMODE                         4                                  
  100CL  104 9553.968678          12                     2    4MODAL      1
 -4  DISP        4    1
 -5  D1          1    2    1    0
 -5  D2          1    2    2    0
 -5  D3          1    2    3    0
 -5  ALL         1    2    0    0    1ALL
 -1         1-8.09586E+00-1.01358E+00 1.69186E+00
 -1         2 0.00000E+00 0.00000E+00 0.00000E+00
 -1         3 0.00000E+00 0.00000E+00 0.00000E+00
 -1         4-8.09586E+00 1.01358E+00 1.69186E+00
 -1         5-1.22839E+01 2.52461E-01 6.29061E-01
 -1         6-1.22839E+01-2.52461E-01 6.29061E-01
 -1         7-8.09586E+00-1.01358E+00-1.69186E+00
 -1         8-8.09586E+00 1.01358E+00-1.69186E+00
 -1         9 0.00000E+00 0.00000E+00 0.00000E+00
 -1        10 0.00000E+00 0.00000E+00 0.00000E+00
 -1        11-1.22839E+01-2.52461E-01-6.29061E-01
 -1        12-1.22839E+01 2.52461E-01-6.29061E-01
 -3
    1PSTEP                         1           1           2          
  100CL  105 2907.726044          12                     3    5           1
 -4  DOR1  Rx    4    1
 -5  dD1dRx      1    2    1    0
 -5  dD2dRx      1    2    1    0
 -5  dD3dRx      1    2    1    0
 -5  ALL         1    2    0    0    1ALL
 -1         1 1.69014E+00 2.28507E-01-2.97992E+00
 -1         2 0.00000E+00 0.00000E+00 0.00000E+00
 -1         3 0.00000E+00 0.00000E+00 0.00000E+00
 -1         4 1.69014E+00-2.28507E-01-2.97992E+00
 -1         5 2.16539E+00-6.06624E-03-7.45463E+00
 -1         6 2.16539E+00 6.06624E-03-7.45463E+00
 -1         7-1.69014E+00-2.28507E-01-2.97992E+00
 -1         8-1.69014E+00 2.28507E-01-2.97992E+00
 -1         9 0.00000E+00 0.00000E+00 0.00000E+00
 -1        10 0.00000E+00 0.00000E+00 0.00000E+00
 -1        11-2.16539E+00-6.06624E-03-7.45463E+00
 -1        12-2.16539E+00 6.06624E-03-7.45463E+00
 -3
    1PSTEP                         2           1           2          
  100CL  106 2907.726044          12                     3    6           1
 -4  DOR1  Ry    4    1
 -5  dD1dRy      1    2    1    0
 -5  dD2dRy      1    2    1    0
 -5  dD3dRy      1    2    1    0
 -5  ALL         1    2    0    0    1ALL
 -1         1 8.81372E-10 4.74730E-02 4.74730E-02
 -1         2 0.00000E+00 0.00000E+00 0.00000E+00
 -1         3 0.00000E+00 0.00000E+00 0.00000E+00
 -1         4 8.81372E-10 4.74730E-02-4.74730E-02
 -1         5 1.12915E-09 6.71369E-02-6.71369E-02
 -1         6 1.12915E-09 6.71369E-02 6.71369E-02
 -1         7-8.81838E-10-4.74730E-02 4.74730E-02
 -1         8-8.81838E-10-4.74730E-02-4.74730E-02
 -1         9 0.00000E+00 0.00000E+00 0.00000E+00
 -1        10 0.00000E+00 0.00000E+00 0.00000E+00
 -1        11-1.12985E-09-6.71369E-02 6.71369E-02
 -1        12-1.12985E-09-6.71369E-02-6.71369E-02
 -3
    1PSTEP                         3           1           2          
  100CL  107 2907.726044          12                     3    7           1
 -4  DOR1  Rz    4    1
 -5  dD1dRz      1    2    1    0
 -5  dD2dRz      1    2    1    0
 -5  dD3dRz      1    2    1    0
 -5  ALL         1    2    0    0    1ALL
 -1         1-1.03336E-01-1.29373E-02 2.15949E-02
 -1         2 0.00000E+00 0.00000E+00 0.00000E+00
 -1         3 0.00000E+00 0.00000E+00 0.00000E+00
 -1         4-1.03336E-01 1.29373E-02 2.15949E-02
 -1         5-1.56792E-01 3.22241E-03 8.02933E-03
 -1         6-1.56792E-01-3.22241E-03 8.02933E-03
 -1         7-1.03336E-01-1.29373E-02-2.15949E-02
 -1         8-1.03336E-01 1.29373E-02-2.15949E-02
 -1         9 0.00000E+00 0.00000E+00 0.00000E+00
 -1        10 0.00000E+00 0.00000E+00 0.00000E+00
 -1        11-1.56792E-01-3.22241E-03-8.02934E-03
 -1        12-1.56792E-01 3.22241E-03-8.02934E-03
 -3
    1PSTEP                         4           1           2          
  100CL  108 2917.383012          12                     3    8           1
 -4  DOR1  Rx    4    1
 -5  dD1dRx      1    2    1    0
 -5  dD2dRx      1    2    1    0
 -5  dD3dRx      1    2    1    0
 -5  ALL         1    2    0    0    1ALL
 -1         1 1.69214E+00 2.97272E+00-2.78964E-01
 -1         2 0.00000E+00 0.00000E+00 0.00000E+00
 -1         3 0.00000E+00 0.00000E+00 0.00000E+00
 -1         4-1.69214E+00 2.97272E+00 2.78964E-01
 -1         5-2.18003E+00 7.46010E+00 1.57569E-02
 -1         6 2.18003E+00 7.46010E+00-1.57569E-02
 -1         7 1.69214E+00 2.97272E+00 2.78964E-01
 -1         8-1.69214E+00 2.97272E+00-2.78964E-01
 -1         9 0.00000E+00 0.00000E+00 0.00000E+00
 -1        10 0.00000E+00 0.00000E+00 0.00000E+00
 -1        11 2.18003E+00 7.46010E+00 1.57569E-02
 -1        12-2.18003E+00 7.46010E+00-1.57569E-02
 -3
    1PSTEP                         5           1           2          
  100CL  109 2917.383012          12                     3    9           1
 -4  DOR1  Ry    4    1
 -5  dD1dRy      1    2    1    0
 -5  dD2dRy      1    2    1    0
 -5  dD3dRy      1    2    1    0
 -5  ALL         1    2    0    0    1ALL
 -1         1 2.09887E-02 2.62772E-03-4.38617E-03
 -1         2 0.00000E+00 0.00000E+00 0.00000E+00
 -1         3 0.00000E+00 0.00000E+00 0.00000E+00
 -1         4 2.09887E-02-2.62772E-03-4.38617E-03
 -1         5 3.18463E-02-6.54505E-04-1.63085E-03
 -1         6 3.18463E-02 6.54513E-04-1.63085E-03
 -1         7 2.09887E-02 2.62772E-03 4.38617E-03
 -1         8 2.09887E-02-2.62772E-03 4.38617E-03
 -1         9 0.00000E+00 0.00000E+00 0.00000E+00
 -1        10 0.00000E+00 0.00000E+00 0.00000E+00
 -1        11 3.18463E-02 6.54513E-04 1.63085E-03
 -1        12 3.18463E-02-6.54505E-04 1.63085E-03
 -3
    1PSTEP                         6           1           2          
  100CL  110 2917.383012          12                     3   10           1
 -4  DOR1  Rz    4    1
 -5  dD1dRz      1    2    1    0
 -5  dD2dRz      1    2    1    0
 -5  dD3dRz      1    2    1    0
 -5  ALL         1    2    0    0    1ALL
 -1         1 8.91019E-10 1.64242E-01 1.64242E-01
 -1         2 0.00000E+00 0.00000E+00 0.00000E+00
 -1         3 0.00000E+00 0.00000E+00 0.00000E+00
 -1         4-8.90111E-10 1.64242E-01-1.64242E-01
 -1         5-1.14665E-09 2.32273E-01-2.32273E-01
 -1         6 1.14803E-09 2.32273E-01 2.32273E-01
 -1         7 8.91019E-10-1.64242E-01 1.64242E-01
 -1         8-8.90111E-10-1.64242E-01-1.64242E-01
 -1         9 0.00000E+00 0.00000E+00 0.00000E+00
 -1        10 0.00000E+00 0.00000E+00 0.00000E+00
 -1        11 1.14803E-09-2.32273E-01 2.32273E-01
 -1        12-1.14665E-09-2.32273E-01-2.32273E-01
 -3
    1PSTEP                         7           1           2          
  100CL  111 5157.985274          12                     3   11           1
 -4  DOR1  Rx    4    1
 -5  dD1dRx      1    2    1    0
 -5  dD2dRx      1    2    1    0
 -5  dD3dRx      1    2    1    0
 -5  ALL         1    2    0    0    1ALL
 -1         1-2.99598E-12-6.22086E-12 2.69363E-12
 -1         2 0.00000E+00 0.00000E+00 0.00000E+00
 -1         3 0.00000E+00 0.00000E+00 0.00000E+00
 -1         4 4.15223E-12-6.33697E-12 1.51518E-12
 -1         5 5.81988E-12-1.58146E-11 6.12573E-12
 -1         6-3.38934E-12-1.56996E-11 6.19229E-12
 -1         7-1.32374E-13-5.83370E-12 2.35524E-12
 -1         8 7.01584E-12-6.72413E-12 3.53369E-12
 -1         9 0.00000E+00 0.00000E+00 0.00000E+00
 -1        10 0.00000E+00 0.00000E+00 0.00000E+00
 -1        11 2.79475E-13-1.56893E-11 6.43808E-12
 -1        12 9.48870E-12-1.58249E-11 6.50464E-12
 -3
    1PSTEP                         8           1           2          
  100CL  112 5157.985274          12                     3   12           1
 -4  DOR1  Ry    4    1
 -5  dD1dRy      1    2    1    0
 -5  dD2dRy      1    2    1    0
 -5  dD3dRy      1    2    1    0
 -5  ALL         1    2    0    0    1ALL
 -1         1-1.52431E-02-2.67788E-02 2.51297E-03
 -1         2 0.00000E+00 0.00000E+00 0.00000E+00
 -1         3 0.00000E+00 0.00000E+00 0.00000E+00
 -1         4 1.52431E-02-2.67788E-02-2.51297E-03
 -1         5 1.96381E-02-6.72021E-02-1.41941E-04
 -1         6-1.96381E-02-6.72021E-02 1.41941E-04
 -1         7-1.52431E-02-2.67788E-02-2.51297E-03
 -1         8 1.52431E-02-2.67788E-02 2.51297E-03
 -1         9 0.00000E+00 0.00000E+00 0.00000E+00
 -1        10 0.00000E+00 0.00000E+00 0.00000E+00
 -1        11-1.96381E-02-6.72021E-02-1.41941E-04
 -1        12 1.96381E-02-6.72021E-02 1.41941E-04
 -3
    1PSTEP                         9           1           2          
  100CL  113 5157.985274          12                     3   13           1
 -4  DOR1  Rz    4    1
 -5  dD1dRz      1    2    1    0
 -5  dD2dRz      1    2    1    0
 -5  dD3dRz      1    2    1    0
 -5  ALL         1    2    0    0    1ALL
 -1         1 5.26744E-02 7.12156E-03-9.28710E-02
 -1         2 0.00000E+00 0.00000E+00 0.00000E+00
 -1         3 0.00000E+00 0.00000E+00 0.00000E+00
 -1         4 5.26744E-02-7.12156E-03-9.28710E-02
 -1         5 6.74857E-02-1.89058E-04-2.32328E-01
 -1         6 6.74857E-02 1.89058E-04-2.32328E-01
 -1         7-5.26744E-02-7.12156E-03-9.28710E-02
 -1         8-5.26744E-02 7.12156E-03-9.28710E-02
 -1         9 0.00000E+00 0.00000E+00 0.00000E+00
 -1        10 0.00000E+00 0.00000E+00 0.00000E+00
 -1        11-6.74857E-02-1.89058E-04-2.32328E-01
 -1        12-6.74857E-02 1.89058E-04-2.32328E-01
 -3
    1PSTEP                        10           1           2          
  100CL  114 9553.968678          12                     3   14           1
 -4  DOR1  Rx    4    1
 -5  dD1dRx      1    2    1    0
 -5  dD2dRx      1    2    1    0
 -5  dD3dRx      1    2    1    0
 -5  ALL         1    2    0    0    1ALL
 -1         1 8.67265E-13 3.30434E-12 1.64902E-12
 -1         2 0.00000E+00 0.00000E+00 0.00000E+00
 -1         3 0.00000E+00 0.00000E+00 0.00000E+00
 -1         4 9.73512E-14 3.17392E-12-3.34975E-12
 -1         5 1.21977E-13 5.31984E-12-5.74812E-12
 -1         6 1.11388E-12 5.32330E-12 1.49353E-12
 -1         7-9.73512E-14-1.95177E-12 1.77595E-12
 -1         8-8.67265E-13-1.82135E-12-3.47668E-12
 -1         9 0.00000E+00 0.00000E+00 0.00000E+00
 -1        10 0.00000E+00 0.00000E+00 0.00000E+00
 -1        11-1.21977E-13-1.92899E-12 1.50070E-12
 -1        12-1.11388E-12-1.92553E-12-5.75529E-12
 -3
    1PSTEP                        11           1           2          
  100CL  115 9553.968678          12                     3   15           1
 -4  DOR1  Ry    4    1
 -5  dD1dRy      1    2    1    0
 -5  dD2dRy      1    2    1    0
 -5  dD3dRy      1    2    1    0
 -5  ALL         1    2    0    0    1ALL
 -1         1-8.58278E-03-1.16039E-03 1.51324E-02
 -1         2 0.00000E+00 0.00000E+00 0.00000E+00
 -1         3 0.00000E+00 0.00000E+00 0.00000E+00
 -1         4-8.58278E-03 1.16039E-03 1.51324E-02
 -1         5-1.09961E-02 3.08052E-05 3.78557E-02
 -1         6-1.09961E-02-3.08052E-05 3.78557E-02
 -1         7 8.58278E-03 1.16039E-03 1.51324E-02
 -1         8 8.58278E-03-1.16039E-03 1.51324E-02
 -1         9 0.00000E+00 0.00000E+00 0.00000E+00
 -1        10 0.00000E+00 0.00000E+00 0.00000E+00
 -1        11 1.09961E-02 3.08052E-05 3.78557E-02
 -1        12 1.09961E-02-3.08052E-05 3.78557E-02
 -3
    1PSTEP                        12           1           2          
  100CL  116 9553.968678          12                     3   16           1
 -4  DOR1  Rz    4    1
 -5  dD1dRz      1    2    1    0
 -5  dD2dRz      1    2    1    0
 -5  dD3dRz      1    2    1    0
 -5  ALL         1    2    0    0    1ALL
 -1         1-4.23064E-02-7.43230E-02 6.97459E-03
 -1         2 0.00000E+00 0.00000E+00 0.00000E+00
 -1         3 0.00000E+00 0.00000E+00 0.00000E+00
 -1         4 4.23064E-02-7.43230E-02-6.97459E-03
 -1         5 5.45044E-02-1.86515E-01-3.93949E-04
 -1         6-5.45044E-02-1.86515E-01 3.93949E-04
 -1         7-4.23064E-02-7.43230E-02-6.97459E-03
 -1         8 4.23064E-02-7.43230E-02 6.97459E-03
 -1         9 0.00000E+00 0.00000E+00 0.00000E+00
 -1        10 0.00000E+00 0.00000E+00 0.00000E+00
 -1        11-5.45044E-02-1.86515E-01-3.93949E-04
 -1        12 5.45044E-02-1.86515E-01 3.93949E-04
 -3
 9999
