    1C
    1UUSER                                                              
    1UDATE              24.november.2019                                
    1UTIME              19:38:41                                        
    1UHOST                                                              
    1UPGM               CalculiX                                        
    1UVERSION           Version 2.16                             
    1UCOMPILETIME       So 24. Nov 18:30:58 CET 2019                    
    1UDIR                                                               
    1UDBN                                                               
    1UMAT    1EL                                                        
    2C                            12                                     1
 -1         1 1.00000E+02 0.00000E+00 0.00000E+00
 -1         2 0.00000E+00 0.00000E+00 0.00000E+00
 -1         3 0.00000E+00 1.00000E+02 0.00000E+00
 -1         4 1.00000E+02 1.00000E+02 0.00000E+00
 -1         5 2.00000E+02 1.00000E+02 0.00000E+00
 -1         6 2.00000E+02 0.00000E+00 0.00000E+00
 -1         7 1.00000E+02 0.00000E+00-1.00000E+02
 -1         8 1.00000E+02 1.00000E+02-1.00000E+02
 -1         9 0.00000E+00 1.00000E+02-1.00000E+02
 -1        10 0.00000E+00 0.00000E+00-1.00000E+02
 -1        11 2.00000E+02 0.00000E+00-1.00000E+02
 -1        12 2.00000E+02 1.00000E+02-1.00000E+02
 -3
    3C                             2                                     1
 -1         1    1    0    1
 -2         6         1         4         5        11         7         8        12
 -1         2    1    0    1
 -2         1         2         3         4         7        10         9         8
 -3
    1PSTEP                         1           1           2          
  100CL  102 0.00000E+00          12                     3    2           1
 -4  DOR1  Rx    4    1
 -5  dD1dRx      1    2    1    0
 -5  dD2dRx      1    2    1    0
 -5  dD3dRx      1    2    1    0
 -5  ALL         1    2    0    0    1ALL
 -1         1 2.64311E-03 3.99768E-03-3.98297E-03
 -1         2 0.00000E+00 0.00000E+00 0.00000E+00
 -1         3 0.00000E+00 0.00000E+00 0.00000E+00
 -1         4-2.64491E-03 3.98584E-03 4.00056E-03
 -1         5-3.29157E-03 1.05501E-02 1.05827E-02
 -1         6 3.28411E-03 1.05766E-02-1.05440E-02
 -1         7-2.64491E-03-3.98584E-03-4.00056E-03
 -1         8 2.64311E-03-3.99768E-03 3.98297E-03
 -1         9 0.00000E+00 0.00000E+00 0.00000E+00
 -1        10 0.00000E+00 0.00000E+00 0.00000E+00
 -1        11-3.29157E-03-1.05501E-02-1.05827E-02
 -1        12 3.28411E-03-1.05766E-02 1.05440E-02
 -3
    1PSTEP                         2           1           2          
  100CL  103 0.00000E+00          12                     3    3           1
 -4  DOR1  Ry    4    1
 -5  dD1dRy      1    2    1    0
 -5  dD2dRy      1    2    1    0
 -5  dD3dRy      1    2    1    0
 -5  ALL         1    2    0    0    1ALL
 -1         1 2.05714E-05 9.11417E-05-1.26656E-05
 -1         2 0.00000E+00 0.00000E+00 0.00000E+00
 -1         3 0.00000E+00 0.00000E+00 0.00000E+00
 -1         4 2.05714E-05-9.11417E-05-1.26656E-05
 -1         5 1.27087E-03-2.36941E-04 3.46046E-02
 -1         6 1.27087E-03 2.36941E-04 3.46046E-02
 -1         7-2.20031E-05-7.84521E-05-2.99089E-05
 -1         8-2.20031E-05 7.84521E-05-2.99089E-05
 -1         9 0.00000E+00 0.00000E+00 0.00000E+00
 -1        10 0.00000E+00 0.00000E+00 0.00000E+00
 -1        11-1.20608E-03-2.07243E-04 3.45678E-02
 -1        12-1.20608E-03 2.07243E-04 3.45678E-02
 -3
    1PSTEP                         3           1           2          
  100CL  104 0.00000E+00          12                     3    4           1
 -4  DOR1  Rz    4    1
 -5  dD1dRz      1    2    1    0
 -5  dD2dRz      1    2    1    0
 -5  dD3dRz      1    2    1    0
 -5  ALL         1    2    0    0    1ALL
 -1         1 1.55314E-05 2.06894E-05-5.05276E-05
 -1         2 0.00000E+00 0.00000E+00 0.00000E+00
 -1         3 0.00000E+00 0.00000E+00 0.00000E+00
 -1         4-8.67183E-06 3.51382E-06 4.58852E-05
 -1         5-5.07488E-04-6.99588E-02 1.17594E-04
 -1         6 6.19765E-04-6.99143E-02-1.28273E-04
 -1         7 1.55314E-05 2.06894E-05 5.05276E-05
 -1         8-8.67183E-06 3.51382E-06-4.58852E-05
 -1         9 0.00000E+00 0.00000E+00 0.00000E+00
 -1        10 0.00000E+00 0.00000E+00 0.00000E+00
 -1        11 6.19765E-04-6.99143E-02 1.28273E-04
 -1        12-5.07488E-04-6.99588E-02-1.17594E-04
 -3
    1PSTEP                         4           1           2          
  100CL  105 0.00000E+00          12                     3    5           1
 -4  SOR1  Rx    6    1
 -5  dSXXdRx     1    4    1    1
 -5  dSYYdRx     1    4    2    2
 -5  dSZZdRx     1    4    3    3
 -5  dSXYdRx     1    4    1    2
 -5  dSYZdRx     1    4    2    3
 -5  dSZXdRx     1    4    3    1
 -1         1 8.21920E+00 2.58530E+00 2.59095E+00 3.66873E-04-3.52171E+00 2.02102E-02
 -1         2 1.32154E+01 4.15491E+00 4.15491E+00 5.04502E+00-3.40142E-04-5.02645E+00
 -1         3-1.32244E+01-4.15775E+00-4.15775E+00 5.03008E+00-3.40142E-04 5.04865E+00
 -1         4-8.21978E+00-2.58311E+00-2.57747E+00-1.63503E-02-3.52171E+00 4.22677E-03
 -1         5-3.21400E+00-1.02395E+00-9.54075E-01-1.43911E-02 1.31934E+01 8.19545E-03
 -1         6 3.22420E+00 1.00022E+00 1.07010E+00 4.10144E-03 1.31934E+01 1.84851E-02
 -1         7-8.21978E+00-2.58311E+00-2.57747E+00 1.63503E-02-3.52171E+00-4.22677E-03
 -1         8 8.21920E+00 2.58530E+00 2.59095E+00-3.66873E-04-3.52171E+00-2.02102E-02
 -1         9 1.32154E+01 4.15491E+00 4.15491E+00-5.04502E+00-3.40142E-04 5.02645E+00
 -1        10-1.32244E+01-4.15775E+00-4.15775E+00-5.03008E+00-3.40142E-04-5.04865E+00
 -1        11-3.21400E+00-1.02395E+00-9.54075E-01 1.43911E-02 1.31934E+01-8.19545E-03
 -1        12 3.22420E+00 1.00022E+00 1.07010E+00-4.10144E-03 1.31934E+01-1.84851E-02
 -3
    1PSTEP                         5           1           2          
  100CL  106 0.00000E+00          12                     3    6           1
 -4  SOR1  Ry    6    1
 -5  dSXXdRy     1    4    1    1
 -5  dSYYdRy     1    4    2    2
 -5  dSZZdRy     1    4    3    3
 -5  dSXYdRy     1    4    1    2
 -5  dSYZdRy     1    4    2    3
 -5  dSZXdRy     1    4    3    1
 -1         1 1.20148E+00 2.96872E-01-1.27092E+00 1.49508E-01 2.14026E-01 1.21233E+00
 -1         2 1.02855E-01 3.23361E-02 3.23366E-02 1.15019E-01 7.59108E-07-1.59839E-02
 -1         3 1.02855E-01 3.23361E-02 3.23366E-02-1.15019E-01-7.59110E-07-1.59839E-02
 -1         4 1.20148E+00 2.96872E-01-1.27092E+00-1.49508E-01-2.14026E-01 1.21233E+00
 -1         5 2.12839E+00 1.27857E-01-2.72597E+00-1.83996E-01-5.60556E-01-2.36589E+00
 -1         6 2.12839E+00 1.27857E-01-2.72597E+00 1.83996E-01 5.60556E-01-2.36589E+00
 -1         7-1.23057E+00-2.93257E-01 1.22790E+00-1.30769E-01 2.14026E-01 1.19087E+00
 -1         8-1.23057E+00-2.93257E-01 1.22790E+00 1.30769E-01-2.14026E-01 1.19087E+00
 -1         9-1.10014E-01-3.45858E-02-3.45882E-02 9.90051E-02-7.59110E-07-3.77447E-02
 -1        10-1.10014E-01-3.45858E-02-3.45882E-02-9.90051E-02 7.59108E-07-3.77447E-02
 -1        11-2.19273E+00-1.45518E-01 2.66870E+00-1.62532E-01 5.60556E-01-2.38705E+00
 -1        12-2.19273E+00-1.45518E-01 2.66870E+00 1.62532E-01-5.60556E-01-2.38705E+00
 -3
    1PSTEP                         6           1           2          
  100CL  107 0.00000E+00          12                     3    7           1
 -4  SOR1  Rz    6    1
 -5  dSXXdRz     1    4    1    1
 -5  dSYYdRz     1    4    2    2
 -5  dSZZdRz     1    4    3    3
 -5  dSXYdRz     1    4    1    2
 -5  dSYZdRz     1    4    2    3
 -5  dSZXdRz     1    4    3    1
 -1         1-2.10328E-01 1.41492E-01 1.56968E-01 2.00495E-01 1.21672E-01-8.09392E-02
 -1         2 7.76562E-02 2.44158E-02 2.44147E-02 2.61099E-02 4.31546E-07-6.37650E-02
 -1         3-4.33583E-02-1.36304E-02-1.36305E-02 4.43441E-03 4.31548E-07 5.79063E-02
 -1         4 1.53539E-01-1.35682E-01-1.50573E-01 1.74519E-01 1.21672E-01 7.42010E-02
 -1         5 4.19892E-01-2.15841E-01-1.48457E-01-4.05449E-01 3.10282E-01 9.04958E-02
 -1         6-5.95617E-01 1.33698E-01 1.10334E-01-3.75172E-01 3.10282E-01-9.81134E-02
 -1         7-2.10328E-01 1.41492E-01 1.56968E-01 2.00495E-01-1.21672E-01 8.09392E-02
 -1         8 1.53539E-01-1.35682E-01-1.50573E-01 1.74519E-01-1.21672E-01-7.42010E-02
 -1         9-4.33583E-02-1.36304E-02-1.36305E-02 4.43441E-03-4.31547E-07-5.79063E-02
 -1        10 7.76562E-02 2.44158E-02 2.44147E-02 2.61099E-02-4.31551E-07 6.37650E-02
 -1        11-5.95617E-01 1.33698E-01 1.10334E-01-3.75172E-01-3.10282E-01 9.81134E-02
 -1        12 4.19892E-01-2.15841E-01-1.48457E-01-4.05449E-01-3.10282E-01-9.04958E-02
 -3
 9999
