    1C
    1UUSER                                                              
    1UDATE              24.november.2019                                
    1UTIME              19:38:41                                        
    1UHOST                                                              
    1UPGM               CalculiX                                        
    1UVERSION           Version 2.16                             
    1UCOMPILETIME       So 24. Nov 18:30:58 CET 2019                    
    1UDIR                                                               
    1UDBN                                                               
    1UMAT    1EL                                                        
    2C                            12                                     1
 -1         1 1.00000E+02 0.00000E+00 0.00000E+00
 -1         2 0.00000E+00 0.00000E+00 0.00000E+00
 -1         3 0.00000E+00 1.00000E+02 0.00000E+00
 -1         4 1.00000E+02 1.00000E+02 0.00000E+00
 -1         5 2.00000E+02 1.00000E+02 0.00000E+00
 -1         6 2.00000E+02 0.00000E+00 0.00000E+00
 -1         7 1.00000E+02 0.00000E+00-1.00000E+02
 -1         8 1.00000E+02 1.00000E+02-1.00000E+02
 -1         9 0.00000E+00 1.00000E+02-1.00000E+02
 -1        10 0.00000E+00 0.00000E+00-1.00000E+02
 -1        11 2.00000E+02 0.00000E+00-1.00000E+02
 -1        12 2.00000E+02 1.00000E+02-1.00000E+02
 -3
    3C                             2                                     1
 -1         1    1    0    1
 -2         6         1         4         5        11         7         8        12
 -1         2    1    0    1
 -2         1         2         3         4         7        10         9         8
 -3
    1PSTEP                         1           1           2          
  100CL  102 0.00000E+00          12                     3    2           1
 -4  DOR1  Rx    4    1
 -5  dD1dRx      1    2    1    0
 -5  dD2dRx      1    2    1    0
 -5  dD3dRx      1    2    1    0
 -5  ALL         1    2    0    0    1ALL
 -1         1 2.63671E-03 3.99662E-03-3.97999E-03
 -1         2 0.00000E+00 0.00000E+00 0.00000E+00
 -1         3 0.00000E+00 0.00000E+00 0.00000E+00
 -1         4-2.63851E-03 3.98478E-03 3.99757E-03
 -1         5-3.28336E-03 1.05404E-02 1.05721E-02
 -1         6 3.27593E-03 1.05669E-02-1.05335E-02
 -1         7-2.63851E-03-3.98478E-03-3.99757E-03
 -1         8 2.63671E-03-3.99662E-03 3.97999E-03
 -1         9 0.00000E+00 0.00000E+00 0.00000E+00
 -1        10 0.00000E+00 0.00000E+00 0.00000E+00
 -1        11-3.28336E-03-1.05404E-02-1.05721E-02
 -1        12 3.27593E-03-1.05669E-02 1.05335E-02
 -3
    1PSTEP                         2           1           2          
  100CL  103 0.00000E+00          12                     3    3           1
 -4  DOR1  Ry    4    1
 -5  dD1dRy      1    2    1    0
 -5  dD2dRy      1    2    1    0
 -5  dD3dRy      1    2    1    0
 -5  ALL         1    2    0    0    1ALL
 -1         1 1.56015E-04 1.11501E-04-1.47749E-04
 -1         2 0.00000E+00 0.00000E+00 0.00000E+00
 -1         3 0.00000E+00 0.00000E+00 0.00000E+00
 -1         4 1.56015E-04-1.11501E-04-1.47749E-04
 -1         5 1.47234E-03-2.43016E-04 3.40015E-02
 -1         6 1.47234E-03 2.43016E-04 3.40015E-02
 -1         7-1.57446E-04-9.88225E-05-1.64990E-04
 -1         8-1.57446E-04 9.88225E-05-1.64990E-04
 -1         9 0.00000E+00 0.00000E+00 0.00000E+00
 -1        10 0.00000E+00 0.00000E+00 0.00000E+00
 -1        11-1.40776E-03-2.13360E-04 3.39646E-02
 -1        12-1.40776E-03 2.13360E-04 3.39646E-02
 -3
    1PSTEP                         3           1           2          
  100CL  104 0.00000E+00          12                     3    4           1
 -4  DOR1  Rz    4    1
 -5  dD1dRz      1    2    1    0
 -5  dD2dRz      1    2    1    0
 -5  dD3dRz      1    2    1    0
 -5  ALL         1    2    0    0    1ALL
 -1         1 2.91823E-04 2.96323E-04-1.01732E-04
 -1         2 0.00000E+00 0.00000E+00 0.00000E+00
 -1         3 0.00000E+00 0.00000E+00 0.00000E+00
 -1         4-2.84987E-04 2.79163E-04 9.71045E-05
 -1         5-9.29488E-04-6.87108E-02 1.35591E-04
 -1         6 1.04143E-03-6.86665E-02-1.46241E-04
 -1         7 2.91823E-04 2.96323E-04 1.01732E-04
 -1         8-2.84987E-04 2.79163E-04-9.71045E-05
 -1         9 0.00000E+00 0.00000E+00 0.00000E+00
 -1        10 0.00000E+00 0.00000E+00 0.00000E+00
 -1        11 1.04143E-03-6.86665E-02 1.46241E-04
 -1        12-9.29488E-04-6.87108E-02-1.35591E-04
 -3
    1PSTEP                         4           1           2          
  100CL  105 0.00000E+00          12                     3    5           1
 -4  SOR1  Rx    6    1
 -5  dSXXdRx     1    4    1    1
 -5  dSYYdRx     1    4    2    2
 -5  dSZZdRx     1    4    3    3
 -5  dSXYdRx     1    4    1    2
 -5  dSYZdRx     1    4    2    3
 -5  dSZXdRx     1    4    3    1
 -1         1 8.22640E+00 2.58090E+00 2.58584E+00 2.12936E-02-3.51106E+00 2.49845E-04
 -1         2 1.32269E+01 4.14622E+00 4.14799E+00 5.06147E+00 4.51759E-03-5.04063E+00
 -1         3-1.32360E+01-4.14906E+00-4.15080E+00 5.04649E+00 4.51883E-03 5.06290E+00
 -1         4-8.22702E+00-2.57872E+00-2.57239E+00 4.54688E-03-3.51106E+00 2.42251E-02
 -1         5-3.21503E+00-1.01995E+00-9.49886E-01 1.33419E-02 1.31521E+01 3.58626E-02
 -1         6 3.22515E+00 9.96326E-01 1.06562E+00 3.18757E-02 1.31521E+01-9.12318E-03
 -1         7-8.22702E+00-2.57872E+00-2.57239E+00-4.54688E-03-3.51106E+00-2.42251E-02
 -1         8 8.22640E+00 2.58090E+00 2.58584E+00-2.12936E-02-3.51106E+00-2.49845E-04
 -1         9 1.32269E+01 4.14622E+00 4.14799E+00-5.06147E+00 4.51759E-03 5.04063E+00
 -1        10-1.32360E+01-4.14906E+00-4.15080E+00-5.04649E+00 4.51883E-03-5.06290E+00
 -1        11-3.21503E+00-1.01995E+00-9.49886E-01-1.33419E-02 1.31521E+01-3.58626E-02
 -1        12 3.22515E+00 9.96326E-01 1.06562E+00-3.18757E-02 1.31521E+01 9.12318E-03
 -3
    1PSTEP                         5           1           2          
  100CL  106 0.00000E+00          12                     3    6           1
 -4  SOR1  Ry    6    1
 -5  dSXXdRy     1    4    1    1
 -5  dSYYdRy     1    4    2    2
 -5  dSZZdRy     1    4    3    3
 -5  dSXYdRy     1    4    1    2
 -5  dSYZdRy     1    4    2    3
 -5  dSZXdRy     1    4    3    1
 -1         1 1.65837E+00 2.94726E-01-1.16655E+00 1.53760E-01 2.64335E-01 1.24852E+00
 -1         2 7.82480E-01 2.45029E-01 2.45321E-01 1.41333E-01 3.54142E-07-1.87118E-01
 -1         3 7.82480E-01 2.45029E-01 2.45321E-01-1.41333E-01-3.54143E-07-1.87118E-01
 -1         4 1.65837E+00 2.94726E-01-1.16655E+00-1.53760E-01-2.64335E-01 1.24852E+00
 -1         5 2.47122E+00 1.87100E-01-2.62237E+00-1.66501E-01-5.73967E-01-2.26742E+00
 -1         6 2.47122E+00 1.87100E-01-2.62237E+00 1.66501E-01 5.73967E-01-2.26742E+00
 -1         7-1.68734E+00-2.91103E-01 1.12384E+00-1.34991E-01 2.64335E-01 1.22708E+00
 -1         8-1.68734E+00-2.91103E-01 1.12384E+00 1.34991E-01-2.64335E-01 1.22708E+00
 -1         9-7.89655E-01-2.47290E-01-2.47549E-01 1.25276E-01-1.51748E-06-2.08955E-01
 -1        10-7.89655E-01-2.47290E-01-2.47549E-01-1.25276E-01 1.51749E-06-2.08955E-01
 -1        11-2.53551E+00-2.04671E-01 2.56530E+00-1.44994E-01 5.73967E-01-2.28852E+00
 -1        12-2.53551E+00-2.04671E-01 2.56530E+00 1.44994E-01-5.73967E-01-2.28852E+00
 -3
    1PSTEP                         6           1           2          
  100CL  107 0.00000E+00          12                     3    7           1
 -4  SOR1  Rz    6    1
 -5  dSXXdRz     1    4    1    1
 -5  dSYYdRz     1    4    2    2
 -5  dSZZdRz     1    4    3    3
 -5  dSXYdRz     1    4    1    2
 -5  dSYZdRz     1    4    2    3
 -5  dSZXdRz     1    4    3    1
 -1         1 6.97403E-01 3.17541E-01 1.83992E-01 1.23902E-01 2.48999E-01-9.26072E-02
 -1         2 1.46341E+00 4.58648E-01 4.58315E-01 3.75262E-01-1.02379E-04-1.29183E-01
 -1         3-1.42912E+00-4.47915E-01-4.47574E-01 3.53523E-01-9.08378E-05 1.23314E-01
 -1         4-7.53634E-01-3.11677E-01-1.77576E-01 9.77413E-02 2.49004E-01 8.58684E-02
 -1         5-2.73752E-01-3.98268E-01-2.73730E-01-6.00583E-01 3.52079E-01 4.87354E-02
 -1         6 9.87874E-02 3.16442E-01 2.35805E-01-5.69960E-01 3.52082E-01-5.63615E-02
 -1         7 6.97403E-01 3.17541E-01 1.83992E-01 1.23902E-01-2.48999E-01 9.26072E-02
 -1         8-7.53634E-01-3.11677E-01-1.77576E-01 9.77413E-02-2.49004E-01-8.58684E-02
 -1         9-1.42912E+00-4.47915E-01-4.47574E-01 3.53523E-01 9.08378E-05-1.23314E-01
 -1        10 1.46341E+00 4.58648E-01 4.58315E-01 3.75262E-01 1.02379E-04 1.29183E-01
 -1        11 9.87874E-02 3.16442E-01 2.35805E-01-5.69960E-01-3.52082E-01 5.63615E-02
 -1        12-2.73752E-01-3.98268E-01-2.73730E-01-6.00583E-01-3.52079E-01-4.87354E-02
 -3
 9999
