    1C
    1UUSER                                                              
    1UDATE              24.november.2019                                
    1UTIME              19:38:42                                        
    1UHOST                                                              
    1UPGM               CalculiX                                        
    1UVERSION           Version 2.16                             
    1UCOMPILETIME       So 24. Nov 18:30:58 CET 2019                    
    1UDIR                                                               
    1UDBN                                                               
    1UMAT    1EL                                                        
    2C                            12                                     1
 -1         1 1.00000E+02 0.00000E+00 0.00000E+00
 -1         2 0.00000E+00 0.00000E+00 0.00000E+00
 -1         3 0.00000E+00 1.00000E+02 0.00000E+00
 -1         4 1.00000E+02 1.00000E+02 0.00000E+00
 -1         5 2.00000E+02 1.00000E+02 0.00000E+00
 -1         6 2.00000E+02 0.00000E+00 0.00000E+00
 -1         7 1.00000E+02 0.00000E+00-1.00000E+02
 -1         8 1.00000E+02 1.00000E+02-1.00000E+02
 -1         9 0.00000E+00 1.00000E+02-1.00000E+02
 -1        10 0.00000E+00 0.00000E+00-1.00000E+02
 -1        11 2.00000E+02 0.00000E+00-1.00000E+02
 -1        12 2.00000E+02 1.00000E+02-1.00000E+02
 -3
    3C                             2                                     1
 -1         1    1    0    1
 -2         6         1         4         5        11         7         8        12
 -1         2    1    0    1
 -2         1         2         3         4         7        10         9         8
 -3
    1PSTEP                         1           1           2          
  100CL  102 0.00000E+00          12                     3    2           1
 -4  NORM        4    1
 -5  NORMX       1    2	 1    0
 -5  NORMY       1    2	 2    0
 -5  NORMZ       1    2	 3    0
 -5  ALL         1    2	 0    0    1ALL
 -1         1 0.00000E+00-7.07107E-01 7.07107E-01
 -1         2 0.00000E+00 0.00000E+00 0.00000E+00
 -1         3 0.00000E+00 0.00000E+00 0.00000E+00
 -1         4 0.00000E+00 7.07107E-01 7.07107E-01
 -1         5 5.77350E-01 5.77350E-01 5.77350E-01
 -1         6 5.77350E-01-5.77350E-01 5.77350E-01
 -1         7 0.00000E+00-7.07107E-01-7.07107E-01
 -1         8 0.00000E+00 7.07107E-01-7.07107E-01
 -1         9 0.00000E+00 0.00000E+00 0.00000E+00
 -1        10 0.00000E+00 0.00000E+00 0.00000E+00
 -1        11 5.77350E-01-5.77350E-01-5.77350E-01
 -1        12 5.77350E-01 5.77350E-01-5.77350E-01
 -3
    1PSTEP                         2           1           2          
  100CL  103 0.00000E+00          12                     3    3           1
 -4  SENMASS     2    1
 -5  DFDN        1    1    1    0
 -5  DFDNFIL     1    1    2    0
 -1         1 0.00000E+00 0.00000E+00
 -1         2 0.00000E+00 0.00000E+00
 -1         3 0.00000E+00 0.00000E+00
 -1         4 0.00000E+00 0.00000E+00
 -1         5 0.00000E+00 0.00000E+00
 -1         6 4.50333E-09 1.00000E+00
 -1         7 0.00000E+00 0.00000E+00
 -1         8 0.00000E+00 0.00000E+00
 -1         9 0.00000E+00 0.00000E+00
 -1        10 0.00000E+00 0.00000E+00
 -1        11 0.00000E+00 0.00000E+00
 -1        12 0.00000E+00 0.00000E+00
 -3
 9999
