    1C
    1UUSER                                                              
    1UDATE              24.november.2019                                
    1UTIME              19:38:43                                        
    1UHOST                                                              
    1UPGM               CalculiX                                        
    1UVERSION           Version 2.16                             
    1UCOMPILETIME       So 24. Nov 18:30:58 CET 2019                    
    1UDIR                                                               
    1UDBN                                                               
    1UMAT    1EL                                                        
    2C                            18                                     1
 -1        22-7.45058E-09-7.45058E-09-5.00000E-03
 -1        24-7.45058E-09-7.45058E-09 5.00000E-03
 -1        25 5.00000E-01-7.45058E-09-5.00000E-03
 -1        27 5.00000E-01-7.45058E-09 5.00000E-03
 -1        28 5.00000E-01 5.00000E-01-5.00000E-03
 -1        30 5.00000E-01 5.00000E-01 5.00000E-03
 -1        31-7.45058E-09 5.00000E-01-5.00000E-03
 -1        33-7.45058E-09 5.00000E-01 5.00000E-03
 -1        34 5.00000E-01 1.00000E+00-5.00000E-03
 -1        36 5.00000E-01 1.00000E+00 5.00000E-03
 -1        37-7.45058E-09 1.00000E+00-5.00000E-03
 -1        39-7.45058E-09 1.00000E+00 5.00000E-03
 -1        40 1.00000E+00-7.45058E-09-5.00000E-03
 -1        42 1.00000E+00-7.45058E-09 5.00000E-03
 -1        43 1.00000E+00 5.00000E-01-5.00000E-03
 -1        45 1.00000E+00 5.00000E-01 5.00000E-03
 -1        46 1.00000E+00 1.00000E+00-5.00000E-03
 -1        48 1.00000E+00 1.00000E+00 5.00000E-03
 -3
    3C                             4                                     1
 -1         1    1    0    1
 -2        22        25        28        31        24        27        30        33
 -1         2    1    0    1
 -2        31        28        34        37        33        30        36        39
 -1         3    1    0    1
 -2        25        40        43        28        27        42        45        30
 -1         4    1    0    1
 -2        28        43        46        34        30        45        48        36
 -3
    1PSTEP                         1           1           1          
  100CL  101 1.000000000          18                     0    1           1
 -4  DISP        4    1
 -5  D1          1    2    1    0
 -5  D2          1    2    2    0
 -5  D3          1    2    3    0
 -5  ALL         1    2    0    0    1ALL
 -1        22 3.30979E-17 4.74034E-19 2.41885E-07
 -1        24-3.30979E-17-4.74034E-19-2.41885E-07
 -1        25 1.39327E-16 2.43761E-04-4.89396E-07
 -1        27 9.48885E-17 2.43761E-04 4.89396E-07
 -1        28 4.61966E-12-1.81615E-12 1.37068E-06
 -1        30 4.61962E-12-1.81615E-12-1.37068E-06
 -1        31-6.20027E-04 2.53858E-17 2.10197E-06
 -1        33-6.20027E-04 2.56721E-17-2.10197E-06
 -1        34 1.45866E-16-2.43761E-04-4.89396E-07
 -1        36 1.01723E-16-2.43761E-04 4.89396E-07
 -1        37 3.44727E-17-2.08493E-19 2.41885E-07
 -1        39-3.44727E-17 2.08493E-19-2.41885E-07
 -1        40-7.74669E-17-3.08356E-18 2.41885E-07
 -1        42 7.74669E-17 3.08356E-18-2.41885E-07
 -1        43 6.20027E-04 2.18377E-17 2.10197E-06
 -1        45 6.20027E-04 2.21571E-17-2.10197E-06
 -1        46-7.85543E-17 3.40717E-18 2.41885E-07
 -1        48 7.85543E-17-3.40717E-18-2.41885E-07
 -3
    1PSTEP                         2           1           1          
  100CL  101 1.000000000          18                     0    1           1
 -4  STRESS      6    1
 -5  SXX         1    4    1    1
 -5  SYY         1    4    2    2
 -5  SZZ         1    4    3    3
 -5  SXY         1    4    1    2
 -5  SYZ         1    4    2    3
 -5  SZX         1    4    3    1
 -1        22-4.00249E+00 3.78624E+01-1.12014E-11-3.03895E+01-5.75961E-12 2.11117E-12
 -1        24-4.00249E+00 3.78624E+01-1.10244E-11-3.03895E+01-5.61488E-12 2.15718E-12
 -1        25-4.00249E+00-6.45164E+01 2.03481E-12 2.26434E-07-1.52914E-13 4.99306E-13
 -1        27-4.00249E+00-6.45164E+01 1.86448E-12 2.26435E-07-2.97370E-13 5.93968E-13
 -1        28 2.56407E+02-6.45164E+01-5.43836E-14 8.61533E-14-3.13295E-13-4.60549E-13
 -1        30 2.56407E+02-6.45164E+01 7.77567E-14 1.10134E-13-3.70318E-13-6.27514E-13
 -1        31 2.56407E+02 3.78624E+01 1.08750E-11 2.26422E-07 2.44142E-13-2.41376E-12
 -1        33 2.56407E+02 3.78624E+01 1.13670E-11 2.26421E-07 3.29249E-13-3.54781E-12
 -1        34-4.00249E+00-6.45164E+01-2.05367E-12-2.26434E-07 8.24629E-13 1.16983E-12
 -1        36-4.00249E+00-6.45164E+01-1.94205E-12-2.26435E-07 8.54796E-13 1.07170E-12
 -1        37-4.00249E+00 3.78624E+01-7.97260E-12 3.03895E+01 5.36494E-12-2.37069E-12
 -1        39-4.00249E+00 3.78624E+01-7.43734E-12 3.03895E+01 5.39007E-12-1.64198E-12
 -1        40-4.00249E+00 3.78624E+01 7.76462E-12 3.03895E+01 6.14920E-12-3.92037E-12
 -1        42-4.00249E+00 3.78624E+01 7.09724E-12 3.03895E+01 5.84627E-12-3.77705E-12
 -1        43 2.56407E+02 3.78624E+01-1.11072E-11-2.26421E-07 2.92962E-13 3.83576E-12
 -1        45 2.56407E+02 3.78624E+01-1.15020E-11-2.26421E-07 2.26459E-13 3.46830E-12
 -1        46-4.00249E+00 3.78624E+01 1.19350E-11-3.03895E+01-7.11227E-12-1.10333E-12
 -1        48-4.00249E+00 3.78624E+01 1.14062E-11-3.03895E+01-6.94213E-12-1.26935E-12
 -3
    1PSTEP                         3           1           1          
  100CL  101 1.000000000          18                     0    1           1
 -4  ERROR       1    1
 -5  STR(%)      1    1    0    0
 -1        22 8.09120E+01
 -1        24 8.09120E+01
 -1        25 8.09120E+01
 -1        27 8.09120E+01
 -1        28 8.09120E+01
 -1        30 8.09120E+01
 -1        31 8.09120E+01
 -1        33 8.09120E+01
 -1        34 8.09120E+01
 -1        36 8.09120E+01
 -1        37 8.09120E+01
 -1        39 8.09120E+01
 -1        40 8.09120E+01
 -1        42 8.09120E+01
 -1        43 8.09120E+01
 -1        45 8.09120E+01
 -1        46 8.09120E+01
 -1        48 8.09120E+01
 -3
    1PSTEP                         1           1           2          
  100CL  102 0.00000E+00          18                     3    2           1
 -4  NORM        4    1
 -5  NORMX       1    2	 1    0
 -5  NORMY       1    2	 2    0
 -5  NORMZ       1    2	 3    0
 -5  ALL         1    2	 0    0    1ALL
 -1        22 0.00000E+00 0.00000E+00-1.00000E+00
 -1        24 0.00000E+00 0.00000E+00 1.00000E+00
 -1        25 0.00000E+00 0.00000E+00-1.00000E+00
 -1        27 0.00000E+00 0.00000E+00 1.00000E+00
 -1        28 0.00000E+00 0.00000E+00-1.00000E+00
 -1        30 0.00000E+00 0.00000E+00-1.00000E+00
 -1        31 0.00000E+00 0.00000E+00-1.00000E+00
 -1        33 0.00000E+00 0.00000E+00 1.00000E+00
 -1        34 0.00000E+00 0.00000E+00-1.00000E+00
 -1        36 0.00000E+00 0.00000E+00 1.00000E+00
 -1        37 0.00000E+00 0.00000E+00-1.00000E+00
 -1        39 0.00000E+00 0.00000E+00 1.00000E+00
 -1        40 0.00000E+00 0.00000E+00-1.00000E+00
 -1        42 0.00000E+00 0.00000E+00 1.00000E+00
 -1        43 0.00000E+00 0.00000E+00-1.00000E+00
 -1        45 0.00000E+00 0.00000E+00 1.00000E+00
 -1        46 0.00000E+00 0.00000E+00-1.00000E+00
 -1        48 0.00000E+00 0.00000E+00 1.00000E+00
 -3
    1PSTEP                         2           1           2          
  100CL  103 0.00000E+00          18                     3    3           1
 -4  SENENER     2    1
 -5  DFDN        1    1    1    0
 -5  DFDNFIL     1    1    2    0
 -1        22 0.00000E+00 0.00000E+00
 -1        24 0.00000E+00 0.00000E+00
 -1        25 0.00000E+00 0.00000E+00
 -1        27 0.00000E+00 0.00000E+00
 -1        28 2.53980E-01 1.00000E+00
 -1        30 2.53980E-01 1.00000E+00
 -1        31 0.00000E+00 0.00000E+00
 -1        33 0.00000E+00 0.00000E+00
 -1        34 0.00000E+00 0.00000E+00
 -1        36 0.00000E+00 0.00000E+00
 -1        37 0.00000E+00 0.00000E+00
 -1        39 0.00000E+00 0.00000E+00
 -1        40 0.00000E+00 0.00000E+00
 -1        42 0.00000E+00 0.00000E+00
 -1        43 0.00000E+00 0.00000E+00
 -1        45 0.00000E+00 0.00000E+00
 -1        46 0.00000E+00 0.00000E+00
 -1        48 0.00000E+00 0.00000E+00
 -3
 9999
