    1C
    1UUSER                                                              
    1UDATE              24.november.2019                                
    1UTIME              19:38:43                                        
    1UHOST                                                              
    1UPGM               CalculiX                                        
    1UVERSION           Version 2.16                             
    1UCOMPILETIME       So 24. Nov 18:30:58 CET 2019                    
    1UDIR                                                               
    1UDBN                                                               
    1UMAT    1EL                                                        
    2C                            51                                     1
 -1        22-7.45058E-09-7.45058E-09-5.00000E-03
 -1        23-7.45058E-09-7.45058E-09 0.00000E+00
 -1        24-7.45058E-09-7.45058E-09 5.00000E-03
 -1        25 5.00000E-01-7.45058E-09-5.00000E-03
 -1        26 5.00000E-01-7.45058E-09 0.00000E+00
 -1        27 5.00000E-01-7.45058E-09 5.00000E-03
 -1        28 5.00000E-01 5.00000E-01-5.00000E-03
 -1        29 5.00000E-01 5.00000E-01 0.00000E+00
 -1        30 5.00000E-01 5.00000E-01 5.00000E-03
 -1        31-7.45058E-09 5.00000E-01-5.00000E-03
 -1        32-7.45058E-09 5.00000E-01 0.00000E+00
 -1        33-7.45058E-09 5.00000E-01 5.00000E-03
 -1        34 2.50000E-01-7.45058E-09-5.00000E-03
 -1        36 2.50000E-01-7.45058E-09 5.00000E-03
 -1        37 5.00000E-01 2.50000E-01-5.00000E-03
 -1        39 5.00000E-01 2.50000E-01 5.00000E-03
 -1        40 2.50000E-01 5.00000E-01-5.00000E-03
 -1        42 2.50000E-01 5.00000E-01 5.00000E-03
 -1        43-7.45058E-09 2.50000E-01-5.00000E-03
 -1        45-7.45058E-09 2.50000E-01 5.00000E-03
 -1        46 5.00000E-01 1.00000E+00-5.00000E-03
 -1        47 5.00000E-01 1.00000E+00 0.00000E+00
 -1        48 5.00000E-01 1.00000E+00 5.00000E-03
 -1        49-7.45058E-09 1.00000E+00-5.00000E-03
 -1        50-7.45058E-09 1.00000E+00 0.00000E+00
 -1        51-7.45058E-09 1.00000E+00 5.00000E-03
 -1        52 5.00000E-01 7.50000E-01-5.00000E-03
 -1        54 5.00000E-01 7.50000E-01 5.00000E-03
 -1        55 2.50000E-01 1.00000E+00-5.00000E-03
 -1        57 2.50000E-01 1.00000E+00 5.00000E-03
 -1        58-7.45058E-09 7.50000E-01-5.00000E-03
 -1        60-7.45058E-09 7.50000E-01 5.00000E-03
 -1        61 1.00000E+00-7.45058E-09-5.00000E-03
 -1        62 1.00000E+00-7.45058E-09 0.00000E+00
 -1        63 1.00000E+00-7.45058E-09 5.00000E-03
 -1        64 1.00000E+00 5.00000E-01-5.00000E-03
 -1        65 1.00000E+00 5.00000E-01 0.00000E+00
 -1        66 1.00000E+00 5.00000E-01 5.00000E-03
 -1        67 7.50000E-01-7.45058E-09-5.00000E-03
 -1        69 7.50000E-01-7.45058E-09 5.00000E-03
 -1        70 1.00000E+00 2.50000E-01-5.00000E-03
 -1        72 1.00000E+00 2.50000E-01 5.00000E-03
 -1        73 7.50000E-01 5.00000E-01-5.00000E-03
 -1        75 7.50000E-01 5.00000E-01 5.00000E-03
 -1        76 1.00000E+00 1.00000E+00-5.00000E-03
 -1        77 1.00000E+00 1.00000E+00 0.00000E+00
 -1        78 1.00000E+00 1.00000E+00 5.00000E-03
 -1        79 1.00000E+00 7.50000E-01-5.00000E-03
 -1        81 1.00000E+00 7.50000E-01 5.00000E-03
 -1        82 7.50000E-01 1.00000E+00-5.00000E-03
 -1        84 7.50000E-01 1.00000E+00 5.00000E-03
 -3
    3C                             4                                     1
 -1         1    4    0    1
 -2        22        25        28        31        24        27        30        33        34        37
 -2        40        43        23        26        29        32        36        39        42        45
 -1         2    4    0    1
 -2        31        28        46        49        33        30        48        51        40        52
 -2        55        58        32        29        47        50        42        54        57        60
 -1         3    4    0    1
 -2        25        61        64        28        27        63        66        30        67        70
 -2        73        37        26        62        65        29        69        72        75        39
 -1         4    4    0    1
 -2        28        64        76        46        30        66        78        48        73        79
 -2        82        52        29        65        77        47        75        81        84        54
 -3
    1PSTEP                         1           1           1          
  100CL  101 1.000000000          51                     0    1           1
 -4  DISP        4    1
 -5  D1          1    2    1    0
 -5  D2          1    2    2    0
 -5  D3          1    2    3    0
 -5  ALL         1    2    0    0    1ALL
 -1        22-4.44830E-16-4.15192E-16-9.85961E-07
 -1        23 0.00000E+00 0.00000E+00 0.00000E+00
 -1        24 4.44830E-16 4.15192E-16 9.85961E-07
 -1        25-1.54684E-12 8.78585E-05 1.54991E-06
 -1        26-1.54662E-12 8.78558E-05-2.60692E-14
 -1        27-1.54669E-12 8.78585E-05-1.54991E-06
 -1        28 2.83440E-12-1.43096E-12 9.44546E-07
 -1        29 2.83135E-12-1.43079E-12-4.25585E-14
 -1        30 2.83420E-12-1.43076E-12-9.44546E-07
 -1        31-7.31545E-04-1.66610E-12 3.99999E-06
 -1        32-7.32084E-04-1.66609E-12-1.95360E-14
 -1        33-7.31545E-04-1.66615E-12-3.99999E-06
 -1        34-4.41396E-05 1.11353E-04-6.81744E-09
 -1        36-4.41396E-05 1.11353E-04 6.81741E-09
 -1        37 9.74599E-13 1.12202E-04 4.85724E-07
 -1        39 9.74496E-13 1.12202E-04-4.85724E-07
 -1        40-3.28263E-04-1.56724E-12 2.19117E-06
 -1        42-3.28263E-04-1.56709E-12-2.19117E-06
 -1        43-1.87977E-04-1.33766E-05 7.45469E-07
 -1        45-1.87977E-04-1.33766E-05-7.45469E-07
 -1        46-1.54671E-12-8.78585E-05 1.54991E-06
 -1        47-1.54656E-12-8.78558E-05-5.01553E-14
 -1        48-1.54670E-12-8.78585E-05-1.54991E-06
 -1        49-9.89815E-16 3.62326E-16-9.85961E-07
 -1        50 0.00000E+00 0.00000E+00 0.00000E+00
 -1        51 9.89815E-16-3.62326E-16 9.85961E-07
 -1        52 9.74692E-13-1.12202E-04 4.85724E-07
 -1        54 9.74533E-13-1.12202E-04-4.85724E-07
 -1        55-4.41396E-05-1.11353E-04-6.81746E-09
 -1        57-4.41396E-05-1.11353E-04 6.81739E-09
 -1        58-1.87977E-04 1.33765E-05 7.45469E-07
 -1        60-1.87977E-04 1.33765E-05-7.45469E-07
 -1        61 5.92361E-16 1.71401E-16-9.85961E-07
 -1        62 0.00000E+00 0.00000E+00 0.00000E+00
 -1        63-5.92361E-16-1.71401E-16 9.85961E-07
 -1        64 7.31545E-04-1.66623E-12 3.99999E-06
 -1        65 7.32084E-04-1.66620E-12 8.94498E-15
 -1        66 7.31545E-04-1.66624E-12-3.99999E-06
 -1        67 4.41396E-05 1.11353E-04-6.81744E-09
 -1        69 4.41396E-05 1.11353E-04 6.81740E-09
 -1        70 1.87977E-04-1.33766E-05 7.45469E-07
 -1        72 1.87977E-04-1.33766E-05-7.45469E-07
 -1        73 3.28263E-04-1.56728E-12 2.19117E-06
 -1        75 3.28263E-04-1.56714E-12-2.19117E-06
 -1        76 1.00726E-15-1.86150E-16-9.85961E-07
 -1        77 0.00000E+00 0.00000E+00 0.00000E+00
 -1        78-1.00726E-15 1.86150E-16 9.85961E-07
 -1        79 1.87977E-04 1.33766E-05 7.45469E-07
 -1        81 1.87977E-04 1.33766E-05-7.45469E-07
 -1        82 4.41396E-05-1.11353E-04-6.81746E-09
 -1        84 4.41396E-05-1.11353E-04 6.81738E-09
 -3
    1PSTEP                         2           1           1          
  100CL  101 1.000000000          51                     0    1           1
 -4  STRESS      6    1
 -5  SXX         1    4    1    1
 -5  SYY         1    4    2    2
 -5  SZZ         1    4    3    3
 -5  SXY         1    4    1    2
 -5  SYZ         1    4    2    3
 -5  SZX         1    4    3    1
 -1        22-8.89035E+01-4.91430E+01-1.67916E-03 5.44714E+01 3.13348E-01 2.23025E-01
 -1        23-8.88937E+01-4.91433E+01-1.67759E-03 5.43805E+01-1.14287E-13-1.11370E-11
 -1        24-8.89035E+01-4.91430E+01-1.67916E-03 5.44714E+01-3.13348E-01-2.23025E-01
 -1        25 1.07147E+02 1.09954E+02 3.47103E-02-1.64399E-07-6.79389E-01 1.25008E-08
 -1        26 1.07157E+02 1.09955E+02 3.53835E-02-1.64972E-07 3.11012E-12-5.50318E-12
 -1        27 1.07147E+02 1.09954E+02 3.47104E-02-1.64609E-07 6.79389E-01-1.25118E-08
 -1        28 2.18423E+02-8.60589E+01 3.98226E-02 1.76729E-11 2.86399E-09-8.75637E-08
 -1        29 2.18738E+02-8.59269E+01 1.71205E-01 1.02185E-11 1.00632E-12 7.19780E-12
 -1        30 2.18423E+02-8.60589E+01 3.98226E-02 2.82485E-12-2.86357E-09 8.75761E-08
 -1        31 4.14473E+02 1.46944E+02 4.26041E-01-1.74068E-06 1.23270E-08-1.81031E+01
 -1        32 4.14787E+02 1.47074E+02 5.56751E-01-1.74125E-06 3.75088E-12 1.61360E-11
 -1        33 4.14473E+02 1.46944E+02 4.26041E-01-1.74050E-06-1.23208E-08 1.81031E+01
 -1        34-2.08433E-01-7.17878E-01 7.15965E-03 2.57358E+01-1.81776E-01 4.09661E-01
 -1        36-2.08433E-01-7.17878E-01 7.15965E-03 2.57358E+01 1.81776E-01-4.09661E-01
 -1        37 8.07229E+01-1.26824E+01 1.04266E-02 1.53028E-07-1.42564E-01-4.28038E-08
 -1        39 8.07229E+01-1.26824E+01 1.04266E-02 1.52915E-07 1.42564E-01 4.28023E-08
 -1        40 3.06931E+02-8.67219E-01-2.11822E-01-8.42663E-07 5.90219E-09-9.20755E+00
 -1        42 3.06931E+02-8.67219E-01-2.11822E-01-8.42580E-07-5.90262E-09 9.20755E+00
 -1        43 8.07237E+01 2.42717E+01 1.87578E-01-7.61057E+01 8.05428E-01-8.94005E+00
 -1        45 8.07237E+01 2.42717E+01 1.87578E-01-7.61057E+01-8.05428E-01 8.94005E+00
 -1        46 1.07147E+02 1.09954E+02 3.47107E-02 1.64381E-07 6.79389E-01 1.25021E-08
 -1        47 1.07157E+02 1.09955E+02 3.53838E-02 1.64927E-07-3.27494E-12-3.61187E-12
 -1        48 1.07147E+02 1.09954E+02 3.47107E-02 1.64537E-07-6.79389E-01-1.25111E-08
 -1        49-8.89035E+01-4.91430E+01-1.67925E-03-5.44714E+01-3.13348E-01 2.23025E-01
 -1        50-8.88937E+01-4.91433E+01-1.67768E-03-5.43805E+01 7.73225E-12-1.75926E-11
 -1        51-8.89035E+01-4.91430E+01-1.67925E-03-5.44714E+01 3.13348E-01-2.23025E-01
 -1        52 8.07229E+01-1.26824E+01 1.04265E-02-1.53020E-07 1.42564E-01-4.28046E-08
 -1        54 8.07229E+01-1.26824E+01 1.04265E-02-1.52949E-07-1.42564E-01 4.28038E-08
 -1        55-2.08432E-01-7.17877E-01 7.15983E-03-2.57358E+01 1.81776E-01 4.09661E-01
 -1        57-2.08432E-01-7.17877E-01 7.15983E-03-2.57358E+01-1.81776E-01-4.09661E-01
 -1        58 8.07237E+01 2.42717E+01 1.87578E-01 7.61057E+01-8.05428E-01-8.94005E+00
 -1        60 8.07237E+01 2.42717E+01 1.87578E-01 7.61057E+01 8.05428E-01 8.94005E+00
 -1        61-8.89035E+01-4.91430E+01-1.67986E-03-5.44714E+01 3.13348E-01-2.23025E-01
 -1        62-8.88937E+01-4.91433E+01-1.67829E-03-5.43805E+01 1.17811E-11-5.25135E-12
 -1        63-8.89035E+01-4.91430E+01-1.67986E-03-5.44714E+01-3.13348E-01 2.23025E-01
 -1        64 4.14473E+02 1.46944E+02 4.26041E-01 1.74068E-06 1.23267E-08 1.81031E+01
 -1        65 4.14787E+02 1.47074E+02 5.56751E-01 1.74127E-06 2.75010E-12-1.51590E-11
 -1        66 4.14473E+02 1.46944E+02 4.26041E-01 1.74055E-06-1.23203E-08-1.81031E+01
 -1        67-2.08431E-01-7.17877E-01 7.16000E-03-2.57358E+01-1.81776E-01-4.09661E-01
 -1        69-2.08431E-01-7.17877E-01 7.16000E-03-2.57358E+01 1.81776E-01 4.09661E-01
 -1        70 8.07237E+01 2.42717E+01 1.87578E-01 7.61057E+01 8.05428E-01 8.94005E+00
 -1        72 8.07237E+01 2.42717E+01 1.87578E-01 7.61057E+01-8.05428E-01-8.94005E+00
 -1        73 3.06931E+02-8.67216E-01-2.11822E-01 8.42680E-07 5.90318E-09 9.20755E+00
 -1        75 3.06931E+02-8.67216E-01-2.11822E-01 8.42609E-07-5.90322E-09-9.20755E+00
 -1        76-8.89035E+01-4.91430E+01-1.67996E-03 5.44714E+01-3.13348E-01-2.23025E-01
 -1        77-8.88937E+01-4.91433E+01-1.67839E-03 5.43805E+01-7.01049E-12 2.55407E-12
 -1        78-8.89035E+01-4.91430E+01-1.67996E-03 5.44714E+01 3.13348E-01 2.23025E-01
 -1        79 8.07237E+01 2.42717E+01 1.87578E-01-7.61057E+01-8.05428E-01 8.94005E+00
 -1        81 8.07237E+01 2.42717E+01 1.87578E-01-7.61057E+01 8.05428E-01-8.94005E+00
 -1        82-2.08431E-01-7.17877E-01 7.16018E-03 2.57358E+01 1.81776E-01-4.09661E-01
 -1        84-2.08431E-01-7.17877E-01 7.16018E-03 2.57358E+01-1.81776E-01 4.09661E-01
 -3
    1PSTEP                         3           1           1          
  100CL  101 1.000000000          51                     0    1           1
 -4  ERROR       1    1
 -5  STR(%)      1    1    0    0
 -1        22 2.18951E+01
 -1        23 2.18951E+01
 -1        24 2.18951E+01
 -1        25 2.18951E+01
 -1        26 2.18951E+01
 -1        27 2.18951E+01
 -1        28 2.18951E+01
 -1        29 2.18951E+01
 -1        30 2.18951E+01
 -1        31 2.18951E+01
 -1        32 2.18951E+01
 -1        33 2.18951E+01
 -1        34 2.18951E+01
 -1        36 2.18951E+01
 -1        37 2.18951E+01
 -1        39 2.18951E+01
 -1        40 2.18951E+01
 -1        42 2.18951E+01
 -1        43 2.18951E+01
 -1        45 2.18951E+01
 -1        46 2.18951E+01
 -1        47 2.18951E+01
 -1        48 2.18951E+01
 -1        49 2.18951E+01
 -1        50 2.18951E+01
 -1        51 2.18951E+01
 -1        52 2.18951E+01
 -1        54 2.18951E+01
 -1        55 2.18951E+01
 -1        57 2.18951E+01
 -1        58 2.18951E+01
 -1        60 2.18951E+01
 -1        61 2.18951E+01
 -1        62 2.18951E+01
 -1        63 2.18951E+01
 -1        64 2.18951E+01
 -1        65 2.18951E+01
 -1        66 2.18951E+01
 -1        67 2.18951E+01
 -1        69 2.18951E+01
 -1        70 2.18951E+01
 -1        72 2.18951E+01
 -1        73 2.18951E+01
 -1        75 2.18951E+01
 -1        76 2.18951E+01
 -1        77 2.18951E+01
 -1        78 2.18951E+01
 -1        79 2.18951E+01
 -1        81 2.18951E+01
 -1        82 2.18951E+01
 -1        84 2.18951E+01
 -3
    1PSTEP                         1           1           2          
  100CL  102 0.00000E+00          51                     3    2           1
 -4  NORM        4    1
 -5  NORMX       1    2	 1    0
 -5  NORMY       1    2	 2    0
 -5  NORMZ       1    2	 3    0
 -5  ALL         1    2	 0    0    1ALL
 -1        22 0.00000E+00 0.00000E+00-1.00000E+00
 -1        23 0.00000E+00 0.00000E+00 0.00000E+00
 -1        24 0.00000E+00 0.00000E+00 1.00000E+00
 -1        25 0.00000E+00 0.00000E+00-1.00000E+00
 -1        26 0.00000E+00 0.00000E+00 0.00000E+00
 -1        27 0.00000E+00 0.00000E+00 1.00000E+00
 -1        28 0.00000E+00 0.00000E+00-1.00000E+00
 -1        29 0.00000E+00 0.00000E+00-1.00000E+00
 -1        30 0.00000E+00 0.00000E+00-1.00000E+00
 -1        31 0.00000E+00 0.00000E+00-1.00000E+00
 -1        32 0.00000E+00 0.00000E+00 0.00000E+00
 -1        33 0.00000E+00 0.00000E+00 1.00000E+00
 -1        34 0.00000E+00-3.46945E-18-1.00000E+00
 -1        36 0.00000E+00 3.46945E-18 1.00000E+00
 -1        37 8.67362E-19 0.00000E+00-1.00000E+00
 -1        39 8.67362E-19 0.00000E+00 1.00000E+00
 -1        40 0.00000E+00-3.46945E-18-1.00000E+00
 -1        42 0.00000E+00 3.46945E-18 1.00000E+00
 -1        43 0.00000E+00 0.00000E+00-1.00000E+00
 -1        45 0.00000E+00 0.00000E+00 1.00000E+00
 -1        46 0.00000E+00 0.00000E+00-1.00000E+00
 -1        47 0.00000E+00 0.00000E+00 0.00000E+00
 -1        48 0.00000E+00 0.00000E+00 1.00000E+00
 -1        49 0.00000E+00 0.00000E+00-1.00000E+00
 -1        50 0.00000E+00 0.00000E+00 0.00000E+00
 -1        51 0.00000E+00 0.00000E+00 1.00000E+00
 -1        52 8.67362E-19 0.00000E+00-1.00000E+00
 -1        54 8.67362E-19 0.00000E+00 1.00000E+00
 -1        55 0.00000E+00-3.46945E-18-1.00000E+00
 -1        57 0.00000E+00 3.46945E-18 1.00000E+00
 -1        58 0.00000E+00 0.00000E+00-1.00000E+00
 -1        60 0.00000E+00 0.00000E+00 1.00000E+00
 -1        61 0.00000E+00 0.00000E+00-1.00000E+00
 -1        62 0.00000E+00 0.00000E+00 0.00000E+00
 -1        63 0.00000E+00 0.00000E+00 1.00000E+00
 -1        64 0.00000E+00 0.00000E+00-1.00000E+00
 -1        65 0.00000E+00 0.00000E+00 0.00000E+00
 -1        66 0.00000E+00 0.00000E+00 1.00000E+00
 -1        67 0.00000E+00-3.46945E-18-1.00000E+00
 -1        69 0.00000E+00 3.46945E-18 1.00000E+00
 -1        70 1.73472E-18 0.00000E+00-1.00000E+00
 -1        72 1.73472E-18 0.00000E+00 1.00000E+00
 -1        73 0.00000E+00-3.46945E-18-1.00000E+00
 -1        75 0.00000E+00 3.46945E-18 1.00000E+00
 -1        76 0.00000E+00 0.00000E+00-1.00000E+00
 -1        77 0.00000E+00 0.00000E+00 0.00000E+00
 -1        78 0.00000E+00 0.00000E+00 1.00000E+00
 -1        79 1.73472E-18 0.00000E+00-1.00000E+00
 -1        81 1.73472E-18 0.00000E+00 1.00000E+00
 -1        82 0.00000E+00-3.46945E-18-1.00000E+00
 -1        84 0.00000E+00 3.46945E-18 1.00000E+00
 -3
    1PSTEP                         2           1           2          
  100CL  103 0.00000E+00          51                     3    3           1
 -4  SENENER     2    1
 -5  DFDN        1    1    1    0
 -5  DFDNFIL     1    1    2    0
 -1        22 0.00000E+00 0.00000E+00
 -1        23 0.00000E+00 0.00000E+00
 -1        24 0.00000E+00 0.00000E+00
 -1        25 0.00000E+00 0.00000E+00
 -1        26 0.00000E+00 0.00000E+00
 -1        27 0.00000E+00 0.00000E+00
 -1        28 2.89948E-02 1.00000E+00
 -1        29 2.89948E-02 1.00000E+00
 -1        30 2.89948E-02 1.00000E+00
 -1        31 0.00000E+00 0.00000E+00
 -1        32 0.00000E+00 0.00000E+00
 -1        33 0.00000E+00 0.00000E+00
 -1        34 0.00000E+00 0.00000E+00
 -1        36 0.00000E+00 0.00000E+00
 -1        37 0.00000E+00 0.00000E+00
 -1        39 0.00000E+00 0.00000E+00
 -1        40 0.00000E+00 0.00000E+00
 -1        42 0.00000E+00 0.00000E+00
 -1        43 0.00000E+00 0.00000E+00
 -1        45 0.00000E+00 0.00000E+00
 -1        46 0.00000E+00 0.00000E+00
 -1        47 0.00000E+00 0.00000E+00
 -1        48 0.00000E+00 0.00000E+00
 -1        49 0.00000E+00 0.00000E+00
 -1        50 0.00000E+00 0.00000E+00
 -1        51 0.00000E+00 0.00000E+00
 -1        52 0.00000E+00 0.00000E+00
 -1        54 0.00000E+00 0.00000E+00
 -1        55 0.00000E+00 0.00000E+00
 -1        57 0.00000E+00 0.00000E+00
 -1        58 0.00000E+00 0.00000E+00
 -1        60 0.00000E+00 0.00000E+00
 -1        61 0.00000E+00 0.00000E+00
 -1        62 0.00000E+00 0.00000E+00
 -1        63 0.00000E+00 0.00000E+00
 -1        64 0.00000E+00 0.00000E+00
 -1        65 0.00000E+00 0.00000E+00
 -1        66 0.00000E+00 0.00000E+00
 -1        67 0.00000E+00 0.00000E+00
 -1        69 0.00000E+00 0.00000E+00
 -1        70 0.00000E+00 0.00000E+00
 -1        72 0.00000E+00 0.00000E+00
 -1        73 0.00000E+00 0.00000E+00
 -1        75 0.00000E+00 0.00000E+00
 -1        76 0.00000E+00 0.00000E+00
 -1        77 0.00000E+00 0.00000E+00
 -1        78 0.00000E+00 0.00000E+00
 -1        79 0.00000E+00 0.00000E+00
 -1        81 0.00000E+00 0.00000E+00
 -1        82 0.00000E+00 0.00000E+00
 -1        84 0.00000E+00 0.00000E+00
 -3
 9999
