    1C
    1UUSER                                                              
    1UDATE              24.november.2019                                
    1UTIME              19:38:43                                        
    1UHOST                                                              
    1UPGM               CalculiX                                        
    1UVERSION           Version 2.16                             
    1UCOMPILETIME       So 24. Nov 18:30:58 CET 2019                    
    1UDIR                                                               
    1UDBN                                                               
    1UMAT    1EL                                                        
    2C                            21                                     1
 -1         1-2.50000E-01 1.46447E-01-2.50000E-01
 -1         2 1.03553E-01 1.46447E-01-6.03553E-01
 -1         3 3.53553E-01 5.00000E-01-3.53553E-01
 -1         4-5.26836E-09 5.00000E-01 5.26836E-09
 -1         5-7.32233E-02 1.46447E-01-4.26777E-01
 -1         6 2.28553E-01 3.23223E-01-4.78553E-01
 -1         7 1.76777E-01 5.00000E-01-1.76777E-01
 -1         8-1.25000E-01 3.23223E-01-1.25000E-01
 -1         9 6.03553E-01 8.53553E-01-1.03553E-01
 -1        10 2.50000E-01 8.53553E-01 2.50000E-01
 -1        11 4.78553E-01 6.76777E-01-2.28553E-01
 -1        12 4.26777E-01 8.53553E-01 7.32233E-02
 -1        13 1.25000E-01 6.76777E-01 1.25000E-01
 -1        14 4.57107E-01 1.46447E-01-9.57107E-01
 -1        15 7.07107E-01 5.00000E-01-7.07107E-01
 -1        16 2.80330E-01 1.46447E-01-7.80330E-01
 -1        17 5.82107E-01 3.23223E-01-8.32107E-01
 -1        18 5.30330E-01 5.00000E-01-5.30330E-01
 -1        19 9.57107E-01 8.53553E-01-4.57107E-01
 -1        20 8.32107E-01 6.76777E-01-5.82107E-01
 -1        21 7.80330E-01 8.53553E-01-2.80330E-01
 -3
    3C                             4                                     1
 -1         1   10    0    1
 -2         1         2         3         4         5         6         7         8
 -1         2   10    0    1
 -2         4         3         9        10         7        11        12        13
 -1         3   10    0    1
 -2         2        14        15         3        16        17        18         6
 -1         4   10    0    1
 -2         3        15        19         9        18        20        21        11
 -3
    1PSTEP                         1           1           1          
  100CL  101 1.000000000          21                     0    1           1
 -4  DISP        4    1
 -5  D1          1    2    1    0
 -5  D2          1    2    2    0
 -5  D3          1    2    3    0
 -5  ALL         1    2    0    0    1ALL
 -1         1-1.23260E-32 0.00000E+00 0.00000E+00
 -1         2-9.33366E-04 1.31998E-03-9.33366E-04
 -1         3-3.75877E-04 5.31571E-04-3.75877E-04
 -1         4 1.54074E-33 0.00000E+00 4.62223E-33
 -1         5-2.53315E-04 3.58242E-04-2.53315E-04
 -1         6-6.90660E-04 9.76741E-04-6.90660E-04
 -1         7-8.78381E-05 1.24222E-04-8.78381E-05
 -1         8-2.46519E-32 0.00000E+00-4.93038E-32
 -1         9 3.24078E-04-4.58316E-04 3.24078E-04
 -1        10 0.00000E+00 0.00000E+00 0.00000E+00
 -1        11-1.20275E-05 1.70094E-05-1.20275E-05
 -1        12 1.14593E-04-1.62059E-04 1.14593E-04
 -1        13 1.23260E-32 0.00000E+00 1.23260E-32
 -1        14-3.09649E-03 4.37910E-03-3.09649E-03
 -1        15-1.59080E-03 2.24974E-03-1.59080E-03
 -1        16-1.90628E-03 2.69589E-03-1.90628E-03
 -1        17-2.48412E-03 3.51308E-03-2.48412E-03
 -1        18-8.55998E-04 1.21056E-03-8.55998E-04
 -1        19 4.05286E-04-5.73161E-04 4.05286E-04
 -1        20-5.63383E-04 7.96744E-04-5.63383E-04
 -1        21 4.30898E-04-6.09382E-04 4.30898E-04
 -3
 9999
