    1C
    1UUSER                                                              
    1UDATE              24.november.2019                                
    1UTIME              19:38:43                                        
    1UHOST                                                              
    1UPGM               CalculiX                                        
    1UVERSION           Version 2.16                             
    1UCOMPILETIME       So 24. Nov 18:30:58 CET 2019                    
    1UDIR                                                               
    1UDBN                                                               
    1UMAT    1EL                                                        
    2C                            21                                     1
 -1         1-7.45058E-09-7.45058E-09 0.00000E+00
 -1         2 5.00000E-01-7.45058E-09 0.00000E+00
 -1         3 5.00000E-01 5.00000E-01 0.00000E+00
 -1         4-7.45058E-09 5.00000E-01 0.00000E+00
 -1         5 2.50000E-01-7.45058E-09 0.00000E+00
 -1         6 5.00000E-01 2.50000E-01 0.00000E+00
 -1         7 2.50000E-01 5.00000E-01 0.00000E+00
 -1         8-7.45058E-09 2.50000E-01 0.00000E+00
 -1         9 5.00000E-01 1.00000E+00 0.00000E+00
 -1        10-7.45058E-09 1.00000E+00 0.00000E+00
 -1        11 5.00000E-01 7.50000E-01 0.00000E+00
 -1        12 2.50000E-01 1.00000E+00 0.00000E+00
 -1        13-7.45058E-09 7.50000E-01 0.00000E+00
 -1        14 1.00000E+00-7.45058E-09 0.00000E+00
 -1        15 1.00000E+00 5.00000E-01 0.00000E+00
 -1        16 7.50000E-01-7.45058E-09 0.00000E+00
 -1        17 1.00000E+00 2.50000E-01 0.00000E+00
 -1        18 7.50000E-01 5.00000E-01 0.00000E+00
 -1        19 1.00000E+00 1.00000E+00 0.00000E+00
 -1        20 1.00000E+00 7.50000E-01 0.00000E+00
 -1        21 7.50000E-01 1.00000E+00 0.00000E+00
 -3
    3C                             4                                     1
 -1         1   10    0    1
 -2         1         2         3         4         5         6         7         8
 -1         2   10    0    1
 -2         4         3         9        10         7        11        12        13
 -1         3   10    0    1
 -2         2        14        15         3        16        17        18         6
 -1         4   10    0    1
 -2         3        15        19         9        18        20        21        11
 -3
    1PSTEP                         1           1           1          
  100CL  101 1.000000000          21                     0    1           1
 -4  DISP        4    1
 -5  D1          1    2    1    0
 -5  D2          1    2    2    0
 -5  D3          1    2    3    0
 -5  ALL         1    2    0    0    1ALL
 -1         1 0.00000E+00 0.00000E+00 0.00000E+00
 -1         2-5.76736E-17-3.95157E-17-1.86672E-03
 -1         3-2.19199E-17-5.76757E-17-7.51753E-04
 -1         4 0.00000E+00 0.00000E+00 0.00000E+00
 -1         5-3.81368E-17-3.07606E-17-5.06628E-04
 -1         6-4.14436E-17-4.87332E-17-1.38132E-03
 -1         7-5.05001E-18-1.49508E-17-1.75676E-04
 -1         8 0.00000E+00 0.00000E+00 0.00000E+00
 -1         9 3.13838E-17-4.51219E-17 6.48152E-04
 -1        10 0.00000E+00 0.00000E+00 0.00000E+00
 -1        11-1.25590E-17-5.99547E-17-2.40565E-05
 -1        12 1.85204E-17-2.06473E-17 2.29184E-04
 -1        13 0.00000E+00 0.00000E+00 0.00000E+00
 -1        14-1.02422E-16-9.21496E-17-6.19296E-03
 -1        15-6.72781E-17-1.41214E-16-3.18160E-03
 -1        16-1.02735E-16-8.06850E-17-3.81255E-03
 -1        17-6.84301E-17-1.19720E-16-4.96823E-03
 -1        18-2.82079E-17-7.31921E-17-1.71199E-03
 -1        19-5.04938E-17-1.96224E-17 8.10562E-04
 -1        20-4.95430E-18-7.19063E-17-1.12677E-03
 -1        21-9.62822E-18-7.78356E-17 8.61788E-04
 -3
 9999
