    1C
    1UUSER                                                              
    1UDATE              24.november.2019                                
    1UTIME              19:38:42                                        
    1UHOST                                                              
    1UPGM               CalculiX                                        
    1UVERSION           Version 2.16                             
    1UCOMPILETIME       So 24. Nov 18:30:58 CET 2019                    
    1UDIR                                                               
    1UDBN                                                               
    1UMAT    1EL1                                                       
    1UMAT    2EL2                                                       
    2C                           102                                     1
 -1        25-7.45058E-09-7.45058E-09-1.00000E-02
 -1        26-7.45058E-09-7.45058E-09-5.00000E-03
 -1        27-7.45058E-09-7.45058E-09 0.00000E+00
 -1        28-7.45058E-09-7.45058E-09 0.00000E+00
 -1        29-7.45058E-09-7.45058E-09 5.00000E-03
 -1        30-7.45058E-09-7.45058E-09 1.00000E-02
 -1        34 5.00000E-01-7.45058E-09-1.00000E-02
 -1        35 5.00000E-01-7.45058E-09-5.00000E-03
 -1        36 5.00000E-01-7.45058E-09 0.00000E+00
 -1        37 5.00000E-01-7.45058E-09 0.00000E+00
 -1        38 5.00000E-01-7.45058E-09 5.00000E-03
 -1        39 5.00000E-01-7.45058E-09 1.00000E-02
 -1        43 5.00000E-01 5.00000E-02-1.00000E-02
 -1        44 5.00000E-01 5.00000E-02-5.00000E-03
 -1        45 5.00000E-01 5.00000E-02 0.00000E+00
 -1        46 5.00000E-01 5.00000E-02 0.00000E+00
 -1        47 5.00000E-01 5.00000E-02 5.00000E-03
 -1        48 5.00000E-01 5.00000E-02 1.00000E-02
 -1        52-7.45058E-09 5.00000E-02-1.00000E-02
 -1        53-7.45058E-09 5.00000E-02-5.00000E-03
 -1        54-7.45058E-09 5.00000E-02 0.00000E+00
 -1        55-7.45058E-09 5.00000E-02 0.00000E+00
 -1        56-7.45058E-09 5.00000E-02 5.00000E-03
 -1        57-7.45058E-09 5.00000E-02 1.00000E-02
 -1        61 2.50000E-01-7.45058E-09-1.00000E-02
 -1        63 2.50000E-01-7.45058E-09 0.00000E+00
 -1        64 2.50000E-01-7.45058E-09 0.00000E+00
 -1        66 2.50000E-01-7.45058E-09 1.00000E-02
 -1        70 5.00000E-01 2.50000E-02-1.00000E-02
 -1        72 5.00000E-01 2.50000E-02 0.00000E+00
 -1        73 5.00000E-01 2.50000E-02 0.00000E+00
 -1        75 5.00000E-01 2.50000E-02 1.00000E-02
 -1        79 2.50000E-01 5.00000E-02-1.00000E-02
 -1        81 2.50000E-01 5.00000E-02 0.00000E+00
 -1        82 2.50000E-01 5.00000E-02 0.00000E+00
 -1        84 2.50000E-01 5.00000E-02 1.00000E-02
 -1        88-7.45058E-09 2.50000E-02-1.00000E-02
 -1        90-7.45058E-09 2.50000E-02 0.00000E+00
 -1        91-7.45058E-09 2.50000E-02 0.00000E+00
 -1        93-7.45058E-09 2.50000E-02 1.00000E-02
 -1        97 5.00000E-01 1.00000E-01-1.00000E-02
 -1        98 5.00000E-01 1.00000E-01-5.00000E-03
 -1        99 5.00000E-01 1.00000E-01 0.00000E+00
 -1       100 5.00000E-01 1.00000E-01 0.00000E+00
 -1       101 5.00000E-01 1.00000E-01 5.00000E-03
 -1       102 5.00000E-01 1.00000E-01 1.00000E-02
 -1       106-7.45058E-09 1.00000E-01-1.00000E-02
 -1       107-7.45058E-09 1.00000E-01-5.00000E-03
 -1       108-7.45058E-09 1.00000E-01 0.00000E+00
 -1       109-7.45058E-09 1.00000E-01 0.00000E+00
 -1       110-7.45058E-09 1.00000E-01 5.00000E-03
 -1       111-7.45058E-09 1.00000E-01 1.00000E-02
 -1       115 5.00000E-01 7.50000E-02-1.00000E-02
 -1       117 5.00000E-01 7.50000E-02 0.00000E+00
 -1       118 5.00000E-01 7.50000E-02 0.00000E+00
 -1       120 5.00000E-01 7.50000E-02 1.00000E-02
 -1       124 2.50000E-01 1.00000E-01-1.00000E-02
 -1       126 2.50000E-01 1.00000E-01 0.00000E+00
 -1       127 2.50000E-01 1.00000E-01 0.00000E+00
 -1       129 2.50000E-01 1.00000E-01 1.00000E-02
 -1       133-7.45058E-09 7.50000E-02-1.00000E-02
 -1       135-7.45058E-09 7.50000E-02 0.00000E+00
 -1       136-7.45058E-09 7.50000E-02 0.00000E+00
 -1       138-7.45058E-09 7.50000E-02 1.00000E-02
 -1       142 1.00000E+00-7.45058E-09-1.00000E-02
 -1       143 1.00000E+00-7.45058E-09-5.00000E-03
 -1       144 1.00000E+00-7.45058E-09 0.00000E+00
 -1       145 1.00000E+00-7.45058E-09 0.00000E+00
 -1       146 1.00000E+00-7.45058E-09 5.00000E-03
 -1       147 1.00000E+00-7.45058E-09 1.00000E-02
 -1       151 1.00000E+00 5.00000E-02-1.00000E-02
 -1       152 1.00000E+00 5.00000E-02-5.00000E-03
 -1       153 1.00000E+00 5.00000E-02 0.00000E+00
 -1       154 1.00000E+00 5.00000E-02 0.00000E+00
 -1       155 1.00000E+00 5.00000E-02 5.00000E-03
 -1       156 1.00000E+00 5.00000E-02 1.00000E-02
 -1       160 7.50000E-01-7.45058E-09-1.00000E-02
 -1       162 7.50000E-01-7.45058E-09 0.00000E+00
 -1       163 7.50000E-01-7.45058E-09 0.00000E+00
 -1       165 7.50000E-01-7.45058E-09 1.00000E-02
 -1       169 1.00000E+00 2.50000E-02-1.00000E-02
 -1       171 1.00000E+00 2.50000E-02 0.00000E+00
 -1       172 1.00000E+00 2.50000E-02 0.00000E+00
 -1       174 1.00000E+00 2.50000E-02 1.00000E-02
 -1       178 7.50000E-01 5.00000E-02-1.00000E-02
 -1       180 7.50000E-01 5.00000E-02 0.00000E+00
 -1       181 7.50000E-01 5.00000E-02 0.00000E+00
 -1       183 7.50000E-01 5.00000E-02 1.00000E-02
 -1       187 1.00000E+00 1.00000E-01-1.00000E-02
 -1       188 1.00000E+00 1.00000E-01-5.00000E-03
 -1       189 1.00000E+00 1.00000E-01 0.00000E+00
 -1       190 1.00000E+00 1.00000E-01 0.00000E+00
 -1       191 1.00000E+00 1.00000E-01 5.00000E-03
 -1       192 1.00000E+00 1.00000E-01 1.00000E-02
 -1       196 1.00000E+00 7.50000E-02-1.00000E-02
 -1       198 1.00000E+00 7.50000E-02 0.00000E+00
 -1       199 1.00000E+00 7.50000E-02 0.00000E+00
 -1       201 1.00000E+00 7.50000E-02 1.00000E-02
 -1       205 7.50000E-01 1.00000E-01-1.00000E-02
 -1       207 7.50000E-01 1.00000E-01 0.00000E+00
 -1       208 7.50000E-01 1.00000E-01 0.00000E+00
 -1       210 7.50000E-01 1.00000E-01 1.00000E-02
 -3
    3C                             4                                     1
 -1         5    4    0    2
 -2        25        34        43        52        27        36        45        54        61        70
 -2        79        88        26        35        44        53        63        72        81        90
 -1         6    4    0    2
 -2        28        37        46        55        30        39        48        57        64        73
 -2        82        91        29        38        47        56        66        75        84        93
 -1         7    4    0    2
 -2        52        43        97       106        54        45        99       108        79       115
 -2       124       133        53        44        98       107        81       117       126       135
 -1         8    4    0    2
 -2        55        46       100       109        57        48       102       111        82       118
 -2       127       136        56        47       101       110        84       120       129       138
 -1         9    4    0    2
 -2        34       142       151        43        36       144       153        45       160       169
 -2       178        70        35       143       152        44       162       171       180        72
 -1        10    4    0    2
 -2        37       145       154        46        39       147       156        48       163       172
 -2       181        73        38       146       155        47       165       174       183        75
 -1        11    4    0    2
 -2        43       151       187        97        45       153       189        99       178       196
 -2       205       115        44       152       188        98       180       198       207       117
 -1        12    4    0    2
 -2        46       154       190       100        48       156       192       102       181       199
 -2       208       118        47       155       191       101       183       201       210       120
 -3
    1PSTEP                         1           1           1          
  100CL  101 1.000000000         102                     0    1           1
 -4  DISP        4    1
 -5  D1          1    2    1    0
 -5  D2          1    2    2    0
 -5  D3          1    2    3    0
 -5  ALL         1    2    0    0    1ALL
 -1        25 0.00000E+00 0.00000E+00 3.99030E-06
 -1        26 0.00000E+00 0.00000E+00 1.99515E-06
 -1        27 0.00000E+00 0.00000E+00 0.00000E+00
 -1        28 0.00000E+00 0.00000E+00 0.00000E+00
 -1        29 0.00000E+00 0.00000E+00-1.99515E-06
 -1        30 0.00000E+00 0.00000E+00-3.99030E-06
 -1        34-4.80913E-04-3.51661E-06-1.59941E-02
 -1        35-1.92345E-04-1.40983E-06-1.59935E-02
 -1        36 9.61909E-05 6.98572E-07-1.59939E-02
 -1        37 9.61909E-05 6.98572E-07-1.59939E-02
 -1        38 3.84694E-04 2.80859E-06-1.59951E-02
 -1        39 6.73165E-04 4.92022E-06-1.59971E-02
 -1        43-4.77393E-04-2.89151E-12-1.60096E-02
 -1        44-1.90941E-04-1.18807E-12-1.60071E-02
 -1        45 9.54937E-05 5.14765E-13-1.60055E-02
 -1        46 9.54937E-05 5.14765E-13-1.60055E-02
 -1        47 3.81912E-04 2.21699E-12-1.60048E-02
 -1        48 6.68314E-04 3.91860E-12-1.60050E-02
 -1        52 0.00000E+00 0.00000E+00 1.15086E-07
 -1        53 0.00000E+00 0.00000E+00 5.75430E-08
 -1        54 0.00000E+00 0.00000E+00 0.00000E+00
 -1        55 0.00000E+00 0.00000E+00 0.00000E+00
 -1        56 0.00000E+00 0.00000E+00-5.75430E-08
 -1        57 0.00000E+00 0.00000E+00-1.15086E-07
 -1        61-2.79617E-04-1.52171E-05-4.38438E-03
 -1        63 5.59296E-05 3.04426E-06-4.38383E-03
 -1        64 5.59296E-05 3.04426E-06-4.38383E-03
 -1        66 3.91411E-04 2.13088E-05-4.38500E-03
 -1        70-4.79147E-04-1.74109E-06-1.60116E-02
 -1        72 9.58410E-05 3.45667E-07-1.60104E-02
 -1        73 9.58410E-05 3.45667E-07-1.60104E-02
 -1        75 6.70731E-04 2.43565E-06-1.60128E-02
 -1        79-2.80697E-04 1.52881E-11-4.42767E-03
 -1        81 5.61366E-05-3.09636E-12-4.42903E-03
 -1        82 5.61366E-05-3.09636E-12-4.42903E-03
 -1        84 3.92937E-04-2.14821E-11-4.43215E-03
 -1        88 0.00000E+00 0.00000E+00-1.46454E-06
 -1        90 0.00000E+00 0.00000E+00 1.05879E-22
 -1        91 0.00000E+00 0.00000E+00 1.05879E-22
 -1        93 0.00000E+00 0.00000E+00 1.46454E-06
 -1        97-4.80913E-04 3.51660E-06-1.59941E-02
 -1        98-1.92345E-04 1.40982E-06-1.59935E-02
 -1        99 9.61909E-05-6.98570E-07-1.59939E-02
 -1       100 9.61909E-05-6.98570E-07-1.59939E-02
 -1       101 3.84694E-04-2.80858E-06-1.59951E-02
 -1       102 6.73165E-04-4.92020E-06-1.59971E-02
 -1       106 0.00000E+00 0.00000E+00 3.99030E-06
 -1       107 0.00000E+00 0.00000E+00 1.99515E-06
 -1       108 0.00000E+00 0.00000E+00 0.00000E+00
 -1       109 0.00000E+00 0.00000E+00 0.00000E+00
 -1       110 0.00000E+00 0.00000E+00-1.99515E-06
 -1       111 0.00000E+00 0.00000E+00-3.99030E-06
 -1       115-4.79147E-04 1.74108E-06-1.60116E-02
 -1       117 9.58410E-05-3.45666E-07-1.60104E-02
 -1       118 9.58410E-05-3.45666E-07-1.60104E-02
 -1       120 6.70731E-04-2.43564E-06-1.60128E-02
 -1       124-2.79617E-04 1.52171E-05-4.38438E-03
 -1       126 5.59296E-05-3.04427E-06-4.38383E-03
 -1       127 5.59296E-05-3.04427E-06-4.38383E-03
 -1       129 3.91411E-04-2.13089E-05-4.38500E-03
 -1       133 0.00000E+00 0.00000E+00-1.46454E-06
 -1       135 0.00000E+00 0.00000E+00 0.00000E+00
 -1       136 0.00000E+00 0.00000E+00 0.00000E+00
 -1       138 0.00000E+00 0.00000E+00 1.46454E-06
 -1       142-5.85063E-04 1.06253E-05-4.96017E-02
 -1       143-2.34040E-04 4.25006E-06-4.96030E-02
 -1       144 1.16978E-04-2.12866E-06-4.96041E-02
 -1       145 1.16978E-04-2.12866E-06-4.96041E-02
 -1       146 4.67990E-04-8.51082E-06-4.96048E-02
 -1       147 8.18996E-04-1.48964E-05-4.96052E-02
 -1       151-5.78748E-04-7.58531E-12-4.95751E-02
 -1       152-2.31504E-04-3.35264E-12-4.95746E-02
 -1       153 1.15733E-04 8.80900E-13-4.95737E-02
 -1       154 1.15733E-04 8.80900E-13-4.95737E-02
 -1       155 4.62962E-04 5.11532E-12-4.95725E-02
 -1       156 8.10184E-04 9.35062E-12-4.95709E-02
 -1       160-5.73023E-04-7.46793E-06-3.20129E-02
 -1       162 1.14602E-04 1.50065E-06-3.20115E-02
 -1       163 1.14602E-04 1.50065E-06-3.20115E-02
 -1       165 8.02150E-04 1.04656E-05-3.20113E-02
 -1       169-5.82449E-04 5.33871E-06-4.95851E-02
 -1       171 1.16465E-04-1.06917E-06-4.95851E-02
 -1       172 1.16465E-04-1.06917E-06-4.95851E-02
 -1       174 8.15352E-04-7.48393E-06-4.95838E-02
 -1       178-5.74666E-04-1.17286E-11-3.20325E-02
 -1       180 1.14920E-04 2.02953E-12-3.20331E-02
 -1       181 1.14920E-04 2.02953E-12-3.20331E-02
 -1       183 8.04457E-04 1.57882E-11-3.20348E-02
 -1       187-5.85063E-04-1.06254E-05-4.96017E-02
 -1       188-2.34040E-04-4.25006E-06-4.96030E-02
 -1       189 1.16978E-04 2.12866E-06-4.96041E-02
 -1       190 1.16978E-04 2.12866E-06-4.96041E-02
 -1       191 4.67990E-04 8.51083E-06-4.96048E-02
 -1       192 8.18996E-04 1.48964E-05-4.96052E-02
 -1       196-5.82449E-04-5.33872E-06-4.95851E-02
 -1       198 1.16465E-04 1.06917E-06-4.95851E-02
 -1       199 1.16465E-04 1.06917E-06-4.95851E-02
 -1       201 8.15352E-04 7.48394E-06-4.95838E-02
 -1       205-5.73023E-04 7.46790E-06-3.20129E-02
 -1       207 1.14602E-04-1.50065E-06-3.20115E-02
 -1       208 1.14602E-04-1.50065E-06-3.20115E-02
 -1       210 8.02150E-04-1.04656E-05-3.20113E-02
 -3
    1PSTEP                         2           1           1          
  100CL  101 1.000000000         102                     0    1           1
 -4  STRESS      6    1
 -5  SXX         1    4    1    1
 -5  SYY         1    4    2    2
 -5  SZZ         1    4    3    3
 -5  SXY         1    4    1    2
 -5  SYZ         1    4    2    3
 -5  SZX         1    4    3    1
 -1        25-6.77587E+02-2.07669E+02-2.65869E+02-2.46413E+01 4.36331E+01 2.31488E+00
 -1        26-2.71121E+02-8.31733E+01-1.06581E+02-9.86860E+00 6.63848E+01 4.09139E+00
 -1        27 1.35345E+02 4.13225E+01 5.27073E+01 4.90405E+00 8.91366E+01 5.86790E+00
 -1        28 6.76640E+01 2.06603E+01 2.63524E+01 2.45211E+00 4.45685E+01 2.93398E+00
 -1        29 2.70860E+02 8.28925E+01 1.05981E+02 9.83896E+00 5.59444E+01 3.54260E+00
 -1        30 4.74056E+02 1.45125E+02 1.85609E+02 1.72258E+01 6.73203E+01 4.15122E+00
 -1        34-2.06074E+02 6.00873E+01 7.74719E+01 4.60083E+00-1.33885E+01-3.13824E+00
 -1        35-8.23955E+01 2.40666E+01 3.10633E+01 1.82350E+00-1.98327E+01-4.21837E+00
 -1        36 4.12830E+01-1.19542E+01-1.53452E+01-9.53831E-01-2.62770E+01-5.29850E+00
 -1        37 2.06359E+01-5.97810E+00-7.67389E+00-4.76900E-01-1.31386E+01-2.64924E+00
 -1        38 8.24640E+01-2.40082E+01-3.08874E+01-1.81515E+00-1.64034E+01-3.14175E+00
 -1        39 1.44292E+02-4.20382E+01-5.41009E+01-3.15340E+00-1.96682E+01-3.63425E+00
 -1        43-2.10603E+02 5.74363E+01 7.70210E+01-3.55189E-05 1.65878E-06-8.47990E-01
 -1        44-8.42616E+01 2.29603E+01 3.07648E+01-1.41542E-05 1.54382E-06-1.41687E+00
 -1        45 4.20799E+01-1.15158E+01-1.54914E+01 7.21053E-06 1.42886E-06-1.98575E+00
 -1        46 2.10343E+01-5.75887E+00-7.74698E+00 3.60538E-06 7.14431E-07-9.92860E-01
 -1        47 8.41931E+01-2.30169E+01-3.08847E+01 1.41627E-05 6.84374E-07-1.22268E+00
 -1        48 1.47352E+02-4.02750E+01-5.40224E+01 2.47200E-05 6.54317E-07-1.45251E+00
 -1        52-6.86074E+02-2.11088E+02-2.68779E+02 3.79980E-05-7.65653E-06-8.28993E+00
 -1        53-2.74314E+02-8.43237E+01-1.07222E+02 1.51854E-05-7.38440E-06-1.02559E+01
 -1        54 1.37445E+02 4.24409E+01 5.43349E+01-7.62713E-06-7.11227E-06-1.22218E+01
 -1        55 6.87143E+01 2.12195E+01 2.71662E+01-3.81376E-06-3.55611E-06-6.11089E+00
 -1        56 2.74575E+02 8.45938E+01 1.07937E+02-1.52202E-05-3.42004E-06-7.37776E+00
 -1        57 4.80436E+02 1.47968E+02 1.88707E+02-2.66267E-05-3.28396E-06-8.64463E+00
 -1        61-4.56666E+02-7.63779E+01-9.93558E+01-1.53347E+00 1.84237E+01-2.04471E+00
 -1        63 9.13447E+01 1.52685E+01 1.98353E+01 2.78284E-01 3.47157E+01-2.71437E+00
 -1        64 4.56632E+01 7.63270E+00 9.91567E+00 1.39123E-01 1.73579E+01-1.35717E+00
 -1        66 3.19588E+02 5.34062E+01 6.94720E+01 1.09701E+00 2.54612E+01-2.25128E+00
 -1        70-2.08339E+02 5.87618E+01 7.72464E+01 2.88006E+00-4.01898E-01-1.99312E+00
 -1        72 4.16814E+01-1.17350E+01-1.54183E+01-6.10205E-01-3.04100E-01-3.64213E+00
 -1        73 2.08351E+01-5.86848E+00-7.71044E+00-3.05078E-01-1.52050E-01-1.82105E+00
 -1        75 1.45822E+02-4.11566E+01-5.40617E+01-1.94882E+00-1.88533E-01-2.54338E+00
 -1        79-4.52460E+02-7.48877E+01-9.66663E+01-4.08975E-06-1.23787E-06-3.55164E+00
 -1        81 9.05459E+01 1.50171E+01 1.93909E+01 8.77055E-07-1.07502E-06-3.71522E+00
 -1        82 4.52638E+01 7.50702E+00 9.69345E+00 4.38510E-07-5.37493E-07-1.85759E+00
 -1        84 3.16721E+02 5.24251E+01 6.76981E+01 2.79630E-06-4.28622E-07-2.50720E+00
 -1        88-6.81830E+02-2.09379E+02-2.67324E+02-1.53768E+01 2.10491E+00-2.98753E+00
 -1        90 1.36395E+02 4.18817E+01 5.35211E+01 3.04999E+00 2.15582E+00-3.17694E+00
 -1        91 6.81892E+01 2.09399E+01 2.67593E+01 1.52504E+00 1.07791E+00-1.58845E+00
 -1        93 4.77246E+02 1.46546E+02 1.87158E+02 1.07390E+01 1.10336E+00-2.24671E+00
 -1        97-2.06074E+02 6.00873E+01 7.74719E+01-4.60088E+00 1.33885E+01-3.13825E+00
 -1        98-8.23955E+01 2.40666E+01 3.10633E+01-1.82352E+00 1.98327E+01-4.21839E+00
 -1        99 4.12830E+01-1.19542E+01-1.53452E+01 9.53841E-01 2.62770E+01-5.29852E+00
 -1       100 2.06359E+01-5.97809E+00-7.67389E+00 4.76905E-01 1.31386E+01-2.64925E+00
 -1       101 8.24640E+01-2.40081E+01-3.08874E+01 1.81517E+00 1.64034E+01-3.14176E+00
 -1       102 1.44292E+02-4.20382E+01-5.41009E+01 3.15343E+00 1.96682E+01-3.63427E+00
 -1       106-6.77587E+02-2.07669E+02-2.65869E+02 2.46413E+01-4.36331E+01 2.31490E+00
 -1       107-2.71121E+02-8.31733E+01-1.06581E+02 9.86864E+00-6.63848E+01 4.09142E+00
 -1       108 1.35345E+02 4.13225E+01 5.27073E+01-4.90407E+00-8.91366E+01 5.86794E+00
 -1       109 6.76640E+01 2.06603E+01 2.63524E+01-2.45212E+00-4.45685E+01 2.93400E+00
 -1       110 2.70860E+02 8.28924E+01 1.05981E+02-9.83899E+00-5.59444E+01 3.54262E+00
 -1       111 4.74056E+02 1.45125E+02 1.85609E+02-1.72259E+01-6.73203E+01 4.15124E+00
 -1       115-2.08339E+02 5.87618E+01 7.72464E+01-2.88012E+00 4.01899E-01-1.99312E+00
 -1       117 4.16814E+01-1.17350E+01-1.54183E+01 6.10217E-01 3.04102E-01-3.64213E+00
 -1       118 2.08351E+01-5.86848E+00-7.71044E+00 3.05084E-01 1.52051E-01-1.82105E+00
 -1       120 1.45822E+02-4.11566E+01-5.40617E+01 1.94886E+00 1.88534E-01-2.54339E+00
 -1       124-4.56666E+02-7.63779E+01-9.93558E+01 1.53347E+00-1.84237E+01-2.04471E+00
 -1       126 9.13447E+01 1.52685E+01 1.98353E+01-2.78284E-01-3.47157E+01-2.71438E+00
 -1       127 4.56632E+01 7.63270E+00 9.91567E+00-1.39124E-01-1.73579E+01-1.35717E+00
 -1       129 3.19588E+02 5.34062E+01 6.94720E+01-1.09702E+00-2.54612E+01-2.25129E+00
 -1       133-6.81830E+02-2.09379E+02-2.67324E+02 1.53769E+01-2.10491E+00-2.98751E+00
 -1       135 1.36395E+02 4.18817E+01 5.35211E+01-3.05001E+00-2.15583E+00-3.17692E+00
 -1       136 6.81892E+01 2.09399E+01 2.67593E+01-1.52504E+00-1.07791E+00-1.58844E+00
 -1       138 4.77246E+02 1.46546E+02 1.87158E+02-1.07390E+01-1.10337E+00-2.24670E+00
 -1       142 2.37968E+01-3.26488E+01-4.37503E+01 1.80624E+01 1.00413E+01-4.20925E+00
 -1       143 9.49932E+00-1.30617E+01-1.74335E+01 7.22586E+00 1.31332E+01-6.22869E+00
 -1       144-4.79820E+00 6.52541E+00 8.88334E+00-3.61069E+00 1.62252E+01-8.24812E+00
 -1       145-2.40105E+00 3.26322E+00 4.44237E+00-1.80533E+00 8.11263E+00-4.12406E+00
 -1       146-9.50312E+00 1.31085E+01 1.76303E+01-7.23033E+00 9.79979E+00-4.75902E+00
 -1       147-1.66052E+01 2.29538E+01 3.08183E+01-1.26553E+01 1.14869E+01-5.39398E+00
 -1       151 5.20240E+01-2.45339E+01-3.90944E+01 1.82319E-05 8.11672E-07 4.33339E+00
 -1       152 2.08011E+01-9.85019E+00-1.56558E+01 7.21567E-06 9.48998E-07 5.97123E+00
 -1       153-1.04217E+01 4.83350E+00 7.78281E+00-3.80054E-06 1.08632E-06 7.60908E+00
 -1       154-5.21295E+00 2.41723E+00 3.89208E+00-1.90039E-06 5.43160E-07 3.80457E+00
 -1       155-2.07973E+01 9.80240E+00 1.56325E+01-7.20246E-06 5.09492E-07 5.01664E+00
 -1       156-3.63817E+01 1.71876E+01 2.73729E+01-1.25045E-05 4.75824E-07 6.22870E+00
 -1       160-7.63024E+01 1.63063E+01 2.20180E+01 2.84487E+00-4.97501E+00-2.04071E+00
 -1       162 1.52115E+01-3.29871E+00-4.38520E+00-5.85433E-01-8.31183E+00-3.77423E+00
 -1       163 7.60420E+00-1.64905E+00-2.19219E+00-2.92630E-01-4.15593E+00-1.88711E+00
 -1       165 5.34300E+01-1.14052E+01-1.53592E+01-1.96517E+00-5.72586E+00-2.00435E+00
 -1       169 3.79104E+01-2.85914E+01-4.14224E+01 1.56825E+01-3.77065E-01 6.20712E-02
 -1       171-7.60997E+00 5.67946E+00 8.33307E+00-3.13275E+00-6.86305E-01-3.19518E-01
 -1       172-3.80700E+00 2.84023E+00 4.16722E+00-1.56634E+00-3.43153E-01-1.59742E-01
 -1       174-2.64934E+01 2.00707E+01 2.90956E+01-1.09858E+01-2.15431E-01 4.17361E-01
 -1       178-7.51679E+01 1.45129E+01 1.97505E+01-3.31424E-06-5.25768E-07 7.25377E-01
 -1       180 1.50456E+01-2.89567E+00-3.82344E+00 6.19649E-07-5.09097E-07-5.76877E-01
 -1       181 7.52129E+00-1.44752E+00-1.91129E+00 3.09795E-07-2.54552E-07-2.88425E-01
 -1       183 5.26577E+01-1.01223E+01-1.36805E+01 2.35804E-06-3.21130E-07-1.53268E-01
 -1       187 2.37968E+01-3.26488E+01-4.37504E+01-1.80624E+01-1.00413E+01-4.20924E+00
 -1       188 9.49928E+00-1.30617E+01-1.74335E+01-7.22585E+00-1.31332E+01-6.22868E+00
 -1       189-4.79819E+00 6.52541E+00 8.88334E+00 3.61068E+00-1.62252E+01-8.24811E+00
 -1       190-2.40104E+00 3.26323E+00 4.44237E+00 1.80532E+00-8.11263E+00-4.12405E+00
 -1       191-9.50309E+00 1.31085E+01 1.76303E+01 7.23032E+00-9.79979E+00-4.75902E+00
 -1       192-1.66051E+01 2.29538E+01 3.08183E+01 1.26553E+01-1.14870E+01-5.39398E+00
 -1       196 3.79104E+01-2.85914E+01-4.14224E+01-1.56825E+01 3.77064E-01 6.20710E-02
 -1       198-7.60996E+00 5.67946E+00 8.33307E+00 3.13275E+00 6.86304E-01-3.19519E-01
 -1       199-3.80700E+00 2.84023E+00 4.16722E+00 1.56634E+00 3.43152E-01-1.59743E-01
 -1       201-2.64934E+01 2.00707E+01 2.90956E+01 1.09858E+01 2.15430E-01 4.17360E-01
 -1       205-7.63024E+01 1.63063E+01 2.20180E+01-2.84487E+00 4.97501E+00-2.04072E+00
 -1       207 1.52115E+01-3.29871E+00-4.38521E+00 5.85433E-01 8.31184E+00-3.77423E+00
 -1       208 7.60420E+00-1.64905E+00-2.19219E+00 2.92630E-01 4.15593E+00-1.88710E+00
 -1       210 5.34300E+01-1.14052E+01-1.53592E+01 1.96517E+00 5.72586E+00-2.00435E+00
 -3
 9999
