    1C
    1UUSER                                                              
    1UDATE              24.november.2019                                
    1UTIME              19:38:43                                        
    1UHOST                                                              
    1UPGM               CalculiX                                        
    1UVERSION           Version 2.16                             
    1UCOMPILETIME       So 24. Nov 18:30:58 CET 2019                    
    1UDIR                                                               
    1UDBN                                                               
    1UMAT    1EL                                                        
    2C                            21                                     1
 -1         1-7.45058E-09-7.45058E-09 0.00000E+00
 -1         2 5.00000E-01-7.45058E-09 0.00000E+00
 -1         3 5.00000E-01 5.00000E-01 0.00000E+00
 -1         4-7.45058E-09 5.00000E-01 0.00000E+00
 -1         5 2.50000E-01-7.45058E-09 0.00000E+00
 -1         6 5.00000E-01 2.50000E-01 0.00000E+00
 -1         7 2.50000E-01 5.00000E-01 0.00000E+00
 -1         8-7.45058E-09 2.50000E-01 0.00000E+00
 -1         9 5.00000E-01 1.00000E+00 0.00000E+00
 -1        10-7.45058E-09 1.00000E+00 0.00000E+00
 -1        11 5.00000E-01 7.50000E-01 0.00000E+00
 -1        12 2.50000E-01 1.00000E+00 0.00000E+00
 -1        13-7.45058E-09 7.50000E-01 0.00000E+00
 -1        14 1.00000E+00-7.45058E-09 0.00000E+00
 -1        15 1.00000E+00 5.00000E-01 0.00000E+00
 -1        16 7.50000E-01-7.45058E-09 0.00000E+00
 -1        17 1.00000E+00 2.50000E-01 0.00000E+00
 -1        18 7.50000E-01 5.00000E-01 0.00000E+00
 -1        19 1.00000E+00 1.00000E+00 0.00000E+00
 -1        20 1.00000E+00 7.50000E-01 0.00000E+00
 -1        21 7.50000E-01 1.00000E+00 0.00000E+00
 -3
    3C                             4                                     1
 -1         1   10    0    1
 -2         1         2         3         4         5         6         7         8
 -1         2   10    0    1
 -2         4         3         9        10         7        11        12        13
 -1         3   10    0    1
 -2         2        14        15         3        16        17        18         6
 -1         4   10    0    1
 -2         3        15        19         9        18        20        21        11
 -3
    1PSTEP                         1           1           1          
  100CL  101 1.000000000          21                     0    1           1
 -4  DISP        4    1
 -5  D1          1    2    1    0
 -5  D2          1    2    2    0
 -5  D3          1    2    3    0
 -5  ALL         1    2    0    0    1ALL
 -1         1 0.00000E+00 0.00000E+00 0.00000E+00
 -1         2-9.94226E-17-1.19408E-16-1.25744E-03
 -1         3-1.34519E-17-1.38142E-16-2.41801E-11
 -1         4 0.00000E+00 0.00000E+00 0.00000E+00
 -1         5-6.23450E-17-6.24106E-17-3.67906E-04
 -1         6-4.40567E-17-1.28419E-16-6.78630E-04
 -1         7-7.88891E-18-5.02415E-17-5.49998E-12
 -1         8 0.00000E+00 0.00000E+00 0.00000E+00
 -1         9 6.49670E-17-1.23204E-16 1.25744E-03
 -1        10 0.00000E+00 0.00000E+00 0.00000E+00
 -1        11 7.56909E-18-1.27179E-16 6.78630E-04
 -1        12 4.46132E-17-5.60787E-17 3.67906E-04
 -1        13 0.00000E+00 0.00000E+00 0.00000E+00
 -1        14-1.25114E-16-2.44127E-16-3.50176E-03
 -1        15-1.82267E-17-2.57134E-16-8.92699E-11
 -1        16-1.24615E-16-1.95023E-16-2.33717E-03
 -1        17-5.95176E-17-2.56560E-16-1.92073E-03
 -1        18-9.76453E-18-1.75536E-16-5.43688E-11
 -1        19-8.79983E-18-1.37050E-16 3.50176E-03
 -1        20 3.07041E-17-1.92724E-16 1.92073E-03
 -1        21 3.05593E-17-1.81526E-16 2.33717E-03
 -3
 9999
