    1C
    1UUSER                                                              
    1UDATE              24.november.2019                                
    1UTIME              19:38:43                                        
    1UHOST                                                              
    1UPGM               CalculiX                                        
    1UVERSION           Version 2.16                             
    1UCOMPILETIME       So 24. Nov 18:30:58 CET 2019                    
    1UDIR                                                               
    1UDBN                                                               
    1UMAT    1EL                                                        
    2C                            21                                     1
 -1         1-2.50000E-01 1.46447E-01-2.50000E-01
 -1         2 1.03553E-01 1.46447E-01-6.03553E-01
 -1         3 3.53553E-01 5.00000E-01-3.53553E-01
 -1         4-5.26836E-09 5.00000E-01 5.26836E-09
 -1         5-7.32233E-02 1.46447E-01-4.26777E-01
 -1         6 2.28553E-01 3.23223E-01-4.78553E-01
 -1         7 1.76777E-01 5.00000E-01-1.76777E-01
 -1         8-1.25000E-01 3.23223E-01-1.25000E-01
 -1         9 6.03553E-01 8.53553E-01-1.03553E-01
 -1        10 2.50000E-01 8.53553E-01 2.50000E-01
 -1        11 4.78553E-01 6.76777E-01-2.28553E-01
 -1        12 4.26777E-01 8.53553E-01 7.32233E-02
 -1        13 1.25000E-01 6.76777E-01 1.25000E-01
 -1        14 4.57107E-01 1.46447E-01-9.57107E-01
 -1        15 7.07107E-01 5.00000E-01-7.07107E-01
 -1        16 2.80330E-01 1.46447E-01-7.80330E-01
 -1        17 5.82107E-01 3.23223E-01-8.32107E-01
 -1        18 5.30330E-01 5.00000E-01-5.30330E-01
 -1        19 9.57107E-01 8.53553E-01-4.57107E-01
 -1        20 8.32107E-01 6.76777E-01-5.82107E-01
 -1        21 7.80330E-01 8.53553E-01-2.80330E-01
 -3
    3C                             4                                     1
 -1         1   10    0    1
 -2         1         2         3         4         5         6         7         8
 -1         2   10    0    1
 -2         4         3         9        10         7        11        12        13
 -1         3   10    0    1
 -2         2        14        15         3        16        17        18         6
 -1         4   10    0    1
 -2         3        15        19         9        18        20        21        11
 -3
    1PSTEP                         1           1           1          
  100CL  101 1.000000000          21                     0    1           1
 -4  DISP        4    1
 -5  D1          1    2    1    0
 -5  D2          1    2    2    0
 -5  D3          1    2    3    0
 -5  ALL         1    2    0    0    1ALL
 -1         1-1.23260E-32 0.00000E+00-6.16298E-33
 -1         2-6.28722E-04 8.89147E-04-6.28722E-04
 -1         3-4.39672E-12 6.22340E-12-4.39633E-12
 -1         4 0.00000E+00 0.00000E+00 6.16298E-33
 -1         5-1.83954E-04 2.60150E-04-1.83954E-04
 -1         6-3.39316E-04 4.79866E-04-3.39316E-04
 -1         7-8.02093E-13 1.13648E-12-8.01805E-13
 -1         8 0.00000E+00 0.00000E+00-2.46519E-32
 -1         9 6.28722E-04-8.89147E-04 6.28722E-04
 -1        10 0.00000E+00 0.00000E+00 0.00000E+00
 -1        11 3.39316E-04-4.79866E-04 3.39316E-04
 -1        12 1.83954E-04-2.60150E-04 1.83954E-04
 -1        13-3.08149E-33 0.00000E+00-3.08149E-33
 -1        14-1.75089E-03 2.47613E-03-1.75089E-03
 -1        15-1.45876E-11 2.06433E-11-1.45855E-11
 -1        16-1.16859E-03 1.65264E-03-1.16859E-03
 -1        17-9.60369E-04 1.35817E-03-9.60369E-04
 -1        18-1.01488E-11 1.43632E-11-1.01477E-11
 -1        19 1.75089E-03-2.47613E-03 1.75089E-03
 -1        20 9.60369E-04-1.35817E-03 9.60369E-04
 -1        21 1.16859E-03-1.65264E-03 1.16859E-03
 -3
 9999
