    1C
    1UUSER                                                              
    1UDATE              24.november.2019                                
    1UTIME              19:38:42                                        
    1UHOST                                                              
    1UPGM               CalculiX                                        
    1UVERSION           Version 2.16                             
    1UCOMPILETIME       So 24. Nov 18:30:58 CET 2019                    
    1UDIR                                                               
    1UDBN                                                               
    1UMAT    1EL                                                        
    2C                            51                                     1
 -1        22-7.45058E-09-7.45058E-09-5.00000E-03
 -1        23-7.45058E-09-7.45058E-09 0.00000E+00
 -1        24-7.45058E-09-7.45058E-09 5.00000E-03
 -1        25 5.00000E-01-7.45058E-09-1.50000E-02
 -1        26 5.00000E-01-7.45058E-09 0.00000E+00
 -1        27 5.00000E-01-7.45058E-09 1.50000E-02
 -1        28 5.00000E-01 5.00000E-01-1.50000E-02
 -1        29 5.00000E-01 5.00000E-01 0.00000E+00
 -1        30 5.00000E-01 5.00000E-01 1.50000E-02
 -1        31-7.45058E-09 5.00000E-01-5.00000E-03
 -1        32-7.45058E-09 5.00000E-01 0.00000E+00
 -1        33-7.45058E-09 5.00000E-01 5.00000E-03
 -1        34 2.50000E-01-7.45058E-09-1.00000E-02
 -1        36 2.50000E-01-7.45058E-09 1.00000E-02
 -1        37 5.00000E-01 2.50000E-01-1.50000E-02
 -1        39 5.00000E-01 2.50000E-01 1.50000E-02
 -1        40 2.50000E-01 5.00000E-01-1.00000E-02
 -1        42 2.50000E-01 5.00000E-01 1.00000E-02
 -1        43-7.45058E-09 2.50000E-01-5.00000E-03
 -1        45-7.45058E-09 2.50000E-01 5.00000E-03
 -1        46 5.00000E-01 1.00000E+00-1.50000E-02
 -1        47 5.00000E-01 1.00000E+00 0.00000E+00
 -1        48 5.00000E-01 1.00000E+00 1.50000E-02
 -1        49-7.45058E-09 1.00000E+00-5.00000E-03
 -1        50-7.45058E-09 1.00000E+00 0.00000E+00
 -1        51-7.45058E-09 1.00000E+00 5.00000E-03
 -1        52 5.00000E-01 7.50000E-01-1.50000E-02
 -1        54 5.00000E-01 7.50000E-01 1.50000E-02
 -1        55 2.50000E-01 1.00000E+00-1.00000E-02
 -1        57 2.50000E-01 1.00000E+00 1.00000E-02
 -1        58-7.45058E-09 7.50000E-01-5.00000E-03
 -1        60-7.45058E-09 7.50000E-01 5.00000E-03
 -1        61 1.00000E+00-7.45058E-09-1.00000E-02
 -1        62 1.00000E+00-7.45058E-09 0.00000E+00
 -1        63 1.00000E+00-7.45058E-09 1.00000E-02
 -1        64 1.00000E+00 5.00000E-01-1.00000E-02
 -1        65 1.00000E+00 5.00000E-01 0.00000E+00
 -1        66 1.00000E+00 5.00000E-01 1.00000E-02
 -1        67 7.50000E-01-7.45058E-09-1.25000E-02
 -1        69 7.50000E-01-7.45058E-09 1.25000E-02
 -1        70 1.00000E+00 2.50000E-01-1.00000E-02
 -1        72 1.00000E+00 2.50000E-01 1.00000E-02
 -1        73 7.50000E-01 5.00000E-01-1.25000E-02
 -1        75 7.50000E-01 5.00000E-01 1.25000E-02
 -1        76 1.00000E+00 1.00000E+00-1.00000E-02
 -1        77 1.00000E+00 1.00000E+00 0.00000E+00
 -1        78 1.00000E+00 1.00000E+00 1.00000E-02
 -1        79 1.00000E+00 7.50000E-01-1.00000E-02
 -1        81 1.00000E+00 7.50000E-01 1.00000E-02
 -1        82 7.50000E-01 1.00000E+00-1.25000E-02
 -1        84 7.50000E-01 1.00000E+00 1.25000E-02
 -3
    3C                             4                                     1
 -1         1    4    0    1
 -2        22        25        28        31        24        27        30        33        34        37
 -2        40        43        23        26        29        32        36        39        42        45
 -1         2    4    0    1
 -2        31        28        46        49        33        30        48        51        40        52
 -2        55        58        32        29        47        50        42        54        57        60
 -1         3    4    0    1
 -2        25        61        64        28        27        63        66        30        67        70
 -2        73        37        26        62        65        29        69        72        75        39
 -1         4    4    0    1
 -2        28        64        76        46        30        66        78        48        73        79
 -2        82        52        29        65        77        47        75        81        84        54
 -3
    1PSTEP                         1           1           1          
  100CL  101 1.000000000          51                     0    1           1
 -4  DISP        4    1
 -5  D1          1    2    1    0
 -5  D2          1    2    2    0
 -5  D3          1    2    3    0
 -5  ALL         1    2    0    0    1ALL
 -1        22 0.00000E+00 0.00000E+00-5.11192E-06
 -1        23 0.00000E+00 0.00000E+00 0.00000E+00
 -1        24 0.00000E+00 0.00000E+00 5.11192E-06
 -1        25-6.95160E-05-4.13765E-04-1.48370E-02
 -1        26 4.51069E-04-5.47108E-04-1.48378E-02
 -1        27 9.71272E-04-6.80626E-04-1.48363E-02
 -1        28 1.68149E-04 3.70000E-12-1.26941E-02
 -1        29 6.34014E-04 2.75793E-12-1.26773E-02
 -1        30 1.10127E-03 1.81745E-12-1.26583E-02
 -1        31 0.00000E+00 0.00000E+00-1.43861E-05
 -1        32 0.00000E+00 0.00000E+00 0.00000E+00
 -1        33 0.00000E+00 0.00000E+00 1.43861E-05
 -1        34-5.47821E-05-3.77939E-04-5.93020E-03
 -1        36 5.99713E-04-4.66090E-04-5.91222E-03
 -1        37 1.14346E-04-1.93503E-04-1.32173E-02
 -1        39 1.12608E-03-3.17813E-04-1.31981E-02
 -1        40 1.44673E-04 3.01483E-12-4.91665E-03
 -1        42 6.94423E-04 2.39855E-12-4.90752E-03
 -1        43 0.00000E+00 0.00000E+00-9.57725E-06
 -1        45 0.00000E+00 0.00000E+00 9.57725E-06
 -1        46-6.95160E-05 4.13765E-04-1.48370E-02
 -1        47 4.51069E-04 5.47108E-04-1.48378E-02
 -1        48 9.71272E-04 6.80626E-04-1.48363E-02
 -1        49 0.00000E+00 0.00000E+00-5.11192E-06
 -1        50 0.00000E+00 0.00000E+00 0.00000E+00
 -1        51 0.00000E+00 0.00000E+00 5.11192E-06
 -1        52 1.14346E-04 1.93503E-04-1.32173E-02
 -1        54 1.12608E-03 3.17813E-04-1.31981E-02
 -1        55-5.47821E-05 3.77939E-04-5.93020E-03
 -1        57 5.99713E-04 4.66090E-04-5.91222E-03
 -1        58 0.00000E+00 0.00000E+00-9.57725E-06
 -1        60 0.00000E+00 0.00000E+00 9.57725E-06
 -1        61 4.35479E-04-4.93977E-04-3.29926E-02
 -1        62 8.08781E-04-6.16487E-04-3.29941E-02
 -1        63 1.18443E-03-7.38835E-04-3.29929E-02
 -1        64 1.02550E-03 2.37690E-12-2.84388E-02
 -1        65 1.31673E-03 1.05618E-12-2.84273E-02
 -1        66 1.60350E-03-2.64238E-13-2.84151E-02
 -1        67 2.23120E-04-4.44730E-04-2.37915E-02
 -1        69 1.11061E-03-7.01113E-04-2.37723E-02
 -1        70 6.37793E-04-2.18186E-04-2.99687E-02
 -1        72 1.30421E-03-4.31294E-04-2.99585E-02
 -1        73 5.44652E-04 3.38335E-12-2.06987E-02
 -1        75 1.32710E-03 9.86779E-13-2.06917E-02
 -1        76 4.35479E-04 4.93977E-04-3.29926E-02
 -1        77 8.08781E-04 6.16487E-04-3.29941E-02
 -1        78 1.18443E-03 7.38835E-04-3.29929E-02
 -1        79 6.37793E-04 2.18186E-04-2.99687E-02
 -1        81 1.30421E-03 4.31294E-04-2.99585E-02
 -1        82 2.23120E-04 4.44730E-04-2.37915E-02
 -1        84 1.11061E-03 7.01113E-04-2.37723E-02
 -3
    1PSTEP                         2           1           1          
  100CL  101 1.000000000          51                     0    1           1
 -4  NDTEMP      1    1
 -5  T           1    1    0    0
 -1        22 3.68000E+02
 -1        23 3.73000E+02
 -1        24 3.78000E+02
 -1        25 3.58000E+02
 -1        26 3.73000E+02
 -1        27 3.88000E+02
 -1        28 3.58000E+02
 -1        29 3.73000E+02
 -1        30 3.88000E+02
 -1        31 3.68000E+02
 -1        32 3.73000E+02
 -1        33 3.78000E+02
 -1        34 3.63000E+02
 -1        36 3.83000E+02
 -1        37 3.58000E+02
 -1        39 3.88000E+02
 -1        40 3.63000E+02
 -1        42 3.83000E+02
 -1        43 3.68000E+02
 -1        45 3.78000E+02
 -1        46 3.58000E+02
 -1        47 3.73000E+02
 -1        48 3.88000E+02
 -1        49 3.68000E+02
 -1        50 3.73000E+02
 -1        51 3.78000E+02
 -1        52 3.58000E+02
 -1        54 3.88000E+02
 -1        55 3.63000E+02
 -1        57 3.83000E+02
 -1        58 3.68000E+02
 -1        60 3.78000E+02
 -1        61 3.63000E+02
 -1        62 3.73000E+02
 -1        63 3.83000E+02
 -1        64 3.63000E+02
 -1        65 3.73000E+02
 -1        66 3.83000E+02
 -1        67 3.60500E+02
 -1        69 3.85500E+02
 -1        70 3.63000E+02
 -1        72 3.83000E+02
 -1        73 3.60500E+02
 -1        75 3.85500E+02
 -1        76 3.63000E+02
 -1        77 3.73000E+02
 -1        78 3.83000E+02
 -1        79 3.63000E+02
 -1        81 3.83000E+02
 -1        82 3.60500E+02
 -1        84 3.85500E+02
 -3
    1PSTEP                         3           1           1          
  100CL  101 1.000000000          51                     0    1           1
 -4  STRESS      6    1
 -5  SXX         1    4    1    1
 -5  SYY         1    4    2    2
 -5  SZZ         1    4    3    3
 -5  SXY         1    4    1    2
 -5  SYZ         1    4    2    3
 -5  SZX         1    4    3    1
 -1        22-3.30192E+02-3.29160E+02-1.28262E+02-1.63413E+02 4.57034E+00-1.46559E+00
 -1        23-5.72590E+00-2.12266E+02-1.50983E-01-1.73181E+02 3.81291E+00-3.16856E+00
 -1        24 3.18740E+02-9.53716E+01 1.27960E+02-1.82950E+02 3.05549E+00-4.87154E+00
 -1        25 1.39737E+02 6.21974E+01 3.45654E+01 7.16576E+01-1.86104E+00-1.65269E+00
 -1        26 5.81515E+01 5.02488E+01 4.31012E-01 5.44642E+01-1.17114E+00-3.09704E+00
 -1        27-2.34338E+01 3.83003E+01-3.37034E+01 3.72707E+01-4.81250E-01-4.54139E+00
 -1        28 5.60824E+01-1.66319E+01 2.69174E+01-5.26554E-08 1.61323E-08-8.92352E+00
 -1        29 1.26255E+00-3.37912E+01-3.12622E-01-3.04139E-07 2.83760E-08-2.19589E-02
 -1        30-5.35573E+01-5.09505E+01-2.75426E+01-5.55623E-07 4.06197E-08 8.87960E+00
 -1        31-8.96336E+01-2.47672E+02-1.00174E+02 1.62644E-06-5.83417E-08 3.03799E+00
 -1        32 1.68732E+02-1.59234E+02-1.63620E-01 1.58410E-06-5.03641E-08-5.02477E+00
 -1        33 4.27097E+02-7.07968E+01 9.98472E+01 1.54176E-06-4.23865E-08-1.30875E+01
 -1        34-6.83042E+01-1.10294E+02-3.83812E+01-3.43331E+01 4.52961E-01 6.36942E-01
 -1        36 1.30378E+02-2.69612E+01 3.84376E+01-6.91258E+01 7.46453E-01-7.44140E+00
 -1        37 9.79095E+01 2.27827E+01 3.07414E+01 3.50264E+01-1.28245E+00-5.28810E+00
 -1        39-3.84955E+01-6.32510E+00-3.06230E+01-1.78543E+00-9.34203E-02 2.16911E+00
 -1        40-1.15628E+01-1.16069E+02-3.04314E+01 8.06728E-07-1.53189E-08-5.82374E+00
 -1        42 1.66775E+02-5.89555E+01 3.09135E+01 5.03892E-07 3.30288E-09 1.73328E+00
 -1        43-2.09913E+02-2.88416E+02-1.14218E+02-7.66557E+01 7.94170E-01 7.86201E-01
 -1        45 3.72919E+02-8.30842E+01 1.13904E+02-8.87321E+01-2.83245E-01-8.97953E+00
 -1        46 1.39737E+02 6.21974E+01 3.45654E+01-7.16576E+01 1.86104E+00-1.65269E+00
 -1        47 5.81515E+01 5.02488E+01 4.31012E-01-5.44642E+01 1.17114E+00-3.09704E+00
 -1        48-2.34338E+01 3.83003E+01-3.37034E+01-3.72707E+01 4.81250E-01-4.54139E+00
 -1        49-3.30192E+02-3.29160E+02-1.28262E+02 1.63413E+02-4.57034E+00-1.46559E+00
 -1        50-5.72589E+00-2.12266E+02-1.50983E-01 1.73181E+02-3.81291E+00-3.16856E+00
 -1        51 3.18740E+02-9.53716E+01 1.27960E+02 1.82950E+02-3.05549E+00-4.87154E+00
 -1        52 9.79095E+01 2.27827E+01 3.07414E+01-3.50264E+01 1.28245E+00-5.28810E+00
 -1        54-3.84955E+01-6.32510E+00-3.06230E+01 1.78543E+00 9.34203E-02 2.16911E+00
 -1        55-6.83042E+01-1.10294E+02-3.83812E+01 3.43331E+01-4.52961E-01 6.36942E-01
 -1        57 1.30378E+02-2.69612E+01 3.84376E+01 6.91258E+01-7.46453E-01-7.44140E+00
 -1        58-2.09913E+02-2.88416E+02-1.14218E+02 7.66557E+01-7.94170E-01 7.86201E-01
 -1        60 3.72919E+02-8.30842E+01 1.13904E+02 8.87321E+01 2.83245E-01-8.97953E+00
 -1        61-5.67648E+01 2.65738E+01-8.43187E+00-2.23097E+01-4.41809E-01-9.51118E+00
 -1        62-7.39528E+01-2.60346E+01-4.66601E-01-4.87082E+01 1.97980E-01 2.13309E+00
 -1        63-9.11408E+01-7.86430E+01 7.49867E+00-7.51067E+01 8.37770E-01 1.37774E+01
 -1        64 2.05272E+02-1.26806E+01-7.51511E+00 3.41249E-07-1.29973E-09 2.29791E+01
 -1        65 1.71157E+02 8.20359E+01 1.11473E+00 8.61900E-09 1.66813E-08-2.37894E+00
 -1        66 1.37043E+02 1.76752E+02 9.74458E+00-3.24011E-07 3.46624E-08-2.77369E+01
 -1        67 1.45623E+01 2.11986E+01 4.59971E+00 1.31293E+01-2.49729E-01-7.77802E+00
 -1        69-4.00117E+01-2.17458E+01-4.41158E+00-2.26317E+01 7.18925E-01 7.35293E+00
 -1        70 7.42538E+01 6.94662E+00-7.97349E+00 6.06528E+01 1.01103E+00 6.73394E+00
 -1        72 2.29509E+01 4.90547E+01 8.62162E+00 1.39214E+01 2.24458E+00-6.97979E+00
 -1        73 1.25465E+02-3.07387E+01 3.50397E+00 1.24460E-07 1.63043E-09 9.90874E+00
 -1        75 6.17378E+01 6.09827E+01-3.66018E+00-4.50642E-07 3.34547E-08-1.32659E+01
 -1        76-5.67648E+01 2.65738E+01-8.43187E+00 2.23097E+01 4.41809E-01-9.51118E+00
 -1        77-7.39528E+01-2.60346E+01-4.66601E-01 4.87082E+01-1.97980E-01 2.13309E+00
 -1        78-9.11408E+01-7.86430E+01 7.49867E+00 7.51067E+01-8.37769E-01 1.37774E+01
 -1        79 7.42538E+01 6.94662E+00-7.97349E+00-6.06528E+01-1.01103E+00 6.73394E+00
 -1        81 2.29509E+01 4.90547E+01 8.62162E+00-1.39214E+01-2.24458E+00-6.97979E+00
 -1        82 1.45623E+01 2.11986E+01 4.59971E+00-1.31293E+01 2.49729E-01-7.77802E+00
 -1        84-4.00117E+01-2.17458E+01-4.41158E+00 2.26317E+01-7.18925E-01 7.35293E+00
 -3
    1PSTEP                         4           1           1          
  100CL  101 1.000000000          51                     0    1           1
 -4  FORC        4    1
 -5  F1          1    2    1    0
 -5  F2          1    2    2    0
 -5  F3          1    2    3    0
 -5  ALL         1    2    0    0    1ALL
 -1        22 2.16954E-01 1.17074E-01 2.64701E+00
 -1        23-6.11096E-02 2.91082E-01-5.29241E+00
 -1        24 4.64403E-02 5.46824E-02 2.64697E+00
 -1        25 5.20230E-05-1.14512E-05 2.14246E-03
 -1        26-3.99351E-06-5.85035E-06-2.47819E-05
 -1        27 2.20927E-06 2.92239E-07-3.01853E-05
 -1        28 1.08057E-04-1.30700E-12 4.28986E-03
 -1        29-7.98052E-06 6.84036E-13-4.52952E-05
 -1        30 3.97733E-06-4.37004E-13-6.91235E-05
 -1        31 2.76740E-01 2.66192E-10 4.89418E+00
 -1        32-6.07308E-01-1.73499E-09-9.78270E+00
 -1        33 1.72406E-02-1.74851E-10 4.89410E+00
 -1        34-5.13476E-06-1.59097E-06-6.89906E-05
 -1        36-2.65069E-06-1.87158E-06 6.91545E-05
 -1        37-2.04661E-04 4.78375E-05-8.55923E-03
 -1        39 8.71477E-07 9.00839E-07 2.09386E-04
 -1        40-9.72020E-06 1.73193E-13-1.29048E-04
 -1        42-5.32240E-06 2.04996E-13 1.29424E-04
 -1        43 3.69152E-02 6.22584E-02 1.02991E-02
 -1        45-5.81948E-01 6.64930E-02 1.03912E-02
 -1        46 5.20230E-05 1.14512E-05 2.14246E-03
 -1        47-3.99351E-06 5.85035E-06-2.47819E-05
 -1        48 2.20927E-06-2.92239E-07-3.01852E-05
 -1        49 2.16954E-01-1.17074E-01 2.64701E+00
 -1        50-6.11096E-02-2.91082E-01-5.29241E+00
 -1        51 4.64403E-02-5.46824E-02 2.64697E+00
 -1        52-2.04661E-04-4.78375E-05-8.55923E-03
 -1        54 8.71477E-07-9.00838E-07 2.09386E-04
 -1        55-5.13476E-06 1.59097E-06-6.89906E-05
 -1        57-2.65069E-06 1.87158E-06 6.91545E-05
 -1        58 3.69152E-02-6.22584E-02 1.02991E-02
 -1        60-5.81948E-01-6.64930E-02 1.03912E-02
 -1        61 4.68115E-05-7.12642E-06 2.12190E-03
 -1        62 4.87169E-06-3.70842E-06-1.44105E-05
 -1        63-1.09282E-06 2.28458E-07-1.97558E-05
 -1        64-4.99897E-01-8.44868E-13 4.25433E-03
 -1        65 2.00001E+00-2.16533E-13-2.44735E-05
 -1        66-5.00003E-01-2.67830E-13-5.55893E-05
 -1        67-2.05740E-04 6.43854E-05-8.48431E-03
 -1        69 3.69594E-06-4.10222E-06 1.34276E-04
 -1        70-1.93771E-04 6.05994E-05-8.48160E-03
 -1        72 8.89448E-06 4.10564E-07 1.30648E-04
 -1        73-3.84360E-04 2.16829E-12-1.69378E-02
 -1        75 6.01812E-06 1.61218E-13 2.35983E-04
 -1        76 4.68115E-05 7.12642E-06 2.12190E-03
 -1        77 4.87169E-06 3.70842E-06-1.44105E-05
 -1        78-1.09282E-06-2.28458E-07-1.97558E-05
 -1        79-1.93771E-04-6.05994E-05-8.48160E-03
 -1        81 8.89448E-06-4.10563E-07 1.30648E-04
 -1        82-2.05740E-04-6.43854E-05-8.48431E-03
 -1        84 3.69594E-06 4.10222E-06 1.34276E-04
 -3
 9999
