    1C
    1UUSER                                                              
    1UDATE              24.november.2019                                
    1UTIME              19:38:43                                        
    1UHOST                                                              
    1UPGM               CalculiX                                        
    1UVERSION           Version 2.16                             
    1UCOMPILETIME       So 24. Nov 18:30:58 CET 2019                    
    1UDIR                                                               
    1UDBN                                                               
    1UMAT    1EL                                                        
    2C                            21                                     1
 -1         1-7.45058E-09 1.46447E-01-3.53553E-01
 -1         2 5.00000E-01 1.46447E-01-3.53553E-01
 -1         3 5.00000E-01 5.00000E-01 0.00000E+00
 -1         4-7.45058E-09 5.00000E-01 0.00000E+00
 -1         5 2.50000E-01 1.46447E-01-3.53553E-01
 -1         6 5.00000E-01 3.23223E-01-1.76777E-01
 -1         7 2.50000E-01 5.00000E-01 0.00000E+00
 -1         8-7.45058E-09 3.23223E-01-1.76777E-01
 -1         9 5.00000E-01 8.53553E-01 3.53553E-01
 -1        10-7.45058E-09 8.53553E-01 3.53553E-01
 -1        11 5.00000E-01 6.76777E-01 1.76777E-01
 -1        12 2.50000E-01 8.53553E-01 3.53553E-01
 -1        13-7.45058E-09 6.76777E-01 1.76777E-01
 -1        14 1.00000E+00 1.46447E-01-3.53553E-01
 -1        15 1.00000E+00 5.00000E-01 0.00000E+00
 -1        16 7.50000E-01 1.46447E-01-3.53553E-01
 -1        17 1.00000E+00 3.23223E-01-1.76777E-01
 -1        18 7.50000E-01 5.00000E-01 0.00000E+00
 -1        19 1.00000E+00 8.53553E-01 3.53553E-01
 -1        20 1.00000E+00 6.76777E-01 1.76777E-01
 -1        21 7.50000E-01 8.53553E-01 3.53553E-01
 -3
    3C                             4                                     1
 -1         1   10    0    1
 -2         1         2         3         4         5         6         7         8
 -1         2   10    0    1
 -2         4         3         9        10         7        11        12        13
 -1         3   10    0    1
 -2         2        14        15         3        16        17        18         6
 -1         4   10    0    1
 -2         3        15        19         9        18        20        21        11
 -3
    1PSTEP                         1           1           1          
  100CL  101 1.000000000          21                     0    1           1
 -4  DISP        4    1
 -5  D1          1    2    1    0
 -5  D2          1    2    2    0
 -5  D3          1    2    3    0
 -5  ALL         1    2    0    0    1ALL
 -1         1 0.00000E+00 0.00000E+00 0.00000E+00
 -1         2-3.91375E-15 1.31997E-03-1.31997E-03
 -1         3-3.66418E-16 5.31565E-04-5.31565E-04
 -1         4 0.00000E+00 0.00000E+00 0.00000E+00
 -1         5-2.41388E-15 3.58239E-04-3.58239E-04
 -1         6-1.34146E-15 9.76733E-04-9.76733E-04
 -1         7 3.38407E-17 1.24220E-04-1.24220E-04
 -1         8 0.00000E+00 0.00000E+00 0.00000E+00
 -1         9 4.19698E-15-4.58317E-04 4.58317E-04
 -1        10 0.00000E+00 0.00000E+00 0.00000E+00
 -1        11 1.26754E-15 1.70057E-05-1.70057E-05
 -1        12 2.29506E-15-1.62059E-04 1.62059E-04
 -1        13 0.00000E+00 0.00000E+00-2.46519E-32
 -1        14 4.31260E-16 4.37907E-03-4.37907E-03
 -1        15-2.71350E-16 2.24971E-03-2.24971E-03
 -1        16-2.57314E-15 2.69587E-03-2.69587E-03
 -1        17-3.54966E-15 3.51305E-03-3.51305E-03
 -1        18-6.07162E-16 1.21055E-03-1.21055E-03
 -1        19 3.43890E-15-5.73172E-04 5.73172E-04
 -1        20 3.15802E-15 7.96725E-04-7.96725E-04
 -1        21 4.58691E-15-6.09386E-04 6.09386E-04
 -3
 9999
