
 displacements (vx,vy,vz) for set NALL and time  0.1000000E+01

         1  9.043046E-01  5.070285E-11 -1.004227E-15
         2  8.362840E-01  4.947960E-11 -4.606897E-16
         3  7.686064E-01  4.815422E-11 -9.876785E-17
         4  7.016151E-01  4.659853E-11  8.304989E-17
         5  6.356526E-01  4.478111E-11  8.228598E-17
         6  5.710616E-01  4.268469E-11 -6.045511E-16
         7  5.081854E-01  4.024729E-11 -8.021930E-16
         8  4.473668E-01  3.739674E-11 -8.998878E-16
         9  3.889487E-01  3.414779E-11 -6.668742E-16
        10  3.332738E-01  3.055184E-11 -9.226560E-16
        11  2.806858E-01  2.673837E-11 -9.443401E-16
        12  2.315277E-01  2.283993E-11 -1.066855E-15
        13  1.861401E-01  1.896035E-11 -1.405661E-15
        14  1.448655E-01  1.519532E-11 -1.428373E-15
        15  1.080555E-01  1.164159E-11 -1.293707E-15
        16  7.605498E-02  8.396340E-12 -1.137653E-15
        17  4.917421E-02  5.551066E-12 -8.541345E-16
        18  2.774850E-02  3.199164E-12 -6.640471E-16
        19  1.224274E-02  1.440740E-12 -4.616488E-16
        20  3.031209E-03  3.647853E-13 -2.341013E-16
        21  0.000000E+00  0.000000E+00  0.000000E+00
