    1C
    1UUSER                                                              
    1UDATE              24.november.2019                                
    1UTIME              19:38:43                                        
    1UHOST                                                              
    1UPGM               CalculiX                                        
    1UVERSION           Version 2.16                             
    1UCOMPILETIME       So 24. Nov 18:30:58 CET 2019                    
    1UDIR                                                               
    1UDBN                                                               
    1UMAT    1ALUM                                                      
    2C                             3                                     1
 -1         1 0.00000E+00 0.00000E+00 0.00000E+00
 -1         2 0.00000E+00 0.00000E+00 5.00000E+00
 -1         3 0.00000E+00 0.00000E+00 1.00000E+01
 -3
    3C                             1                                     1
 -1         1   12    0    1
 -2         1         3         2
 -3
    1PSTEP                         1           1           1          
  100CL  101 1.000000000           3                     0    1           1
 -4  DISP        4    1
 -5  D1          1    2    1    0
 -5  D2          1    2    2    0
 -5  D3          1    2    3    0
 -5  ALL         1    2    0    0    1ALL
 -1         1 9.22015E-02-2.34937E-10 1.17799E-16
 -1         2 2.81808E-02-7.17026E-11-4.85723E-17
 -1         3 0.00000E+00 0.00000E+00 0.00000E+00
 -3
    1PSTEP                         2           1           1          
  100CL  101 1.000000000           3                     0    1           1
 -4  STRESS      6    1
 -5  SXX         1    4    1    1
 -5  SYY         1    4    2    2
 -5  SZZ         1    4    3    3
 -5  SXY         1    4    1    2
 -5  SYZ         1    4    2    3
 -5  SZX         1    4    3    1
 -1         1-9.99960E-01 2.59896E-09-4.90075E-11-9.35293E-10 1.09179E-10 3.54644E-05
 -1         2-9.99960E-01 2.52978E-09-4.07965E-11-7.87783E-10 1.27653E-08 4.99997E+00
 -1         3-9.99960E-01 2.46059E-09-3.25855E-11-6.40273E-10 2.54213E-08 9.99990E+00
 -3
 9999
