
 displacements (vx,vy,vz) for set NALL and time  0.1000000E+01

         1  1.000623E-01  0.000000E+00  0.000000E+00
         2  1.000623E-01  1.000000E-01  2.930000E+02
         3  1.000623E-01  0.000000E+00  0.000000E+00
         4  1.000623E-01  9.995979E-02  2.892345E+02
         5  1.000623E-01  0.000000E+00  0.000000E+00
         6  1.000623E-01  9.991960E-02  2.892313E+02
         7  1.000623E-01  0.000000E+00  0.000000E+00
         8  1.000623E-01  9.987938E-02  2.892280E+02
         9  1.000623E-01  0.000000E+00  0.000000E+00
        10  1.000623E-01  9.983915E-02  2.892248E+02
        11  1.000623E-01  0.000000E+00  0.000000E+00
        12  1.000623E-01  9.979890E-02  2.892215E+02
        13  1.000623E-01  0.000000E+00  0.000000E+00
        14  1.000623E-01  9.975863E-02  2.892182E+02
        15  1.000623E-01  0.000000E+00  0.000000E+00
        16  1.000623E-01  9.971834E-02  2.892150E+02
        17  1.000623E-01  0.000000E+00  0.000000E+00
        18  1.000623E-01  9.967800E-02  2.930000E+02
        19  1.000623E-01  0.000000E+00  0.000000E+00

 temperatures for set NALL and time  0.1000000E+01

         1  0.000000E+00
         2  2.930000E+02
         3  0.000000E+00
         4  2.930000E+02
         5  0.000000E+00
         6  2.930000E+02
         7  0.000000E+00
         8  2.930000E+02
         9  0.000000E+00
        10  2.930000E+02
        11  0.000000E+00
        12  2.930000E+02
        13  0.000000E+00
        14  2.930000E+02
        15  0.000000E+00
        16  2.930000E+02
        17  0.000000E+00
        18  2.930000E+02
        19  0.000000E+00
