    1C
    1UBalken                                                            
    1UUSER                                                              
    1UDATE              24.november.2019                                
    1UTIME              19:39:14                                        
    1UHOST                                                              
    1UPGM               CalculiX                                        
    1UVERSION           Version 2.16                             
    1UCOMPILETIME       So 24. Nov 18:30:58 CET 2019                    
    1UDIR                                                               
    1UDBN                                                               
    1UMAT    1STEEL                                                     
    2C                            68                                     1
 -1        12-1.25000E+01 2.50000E+01 0.00000E+00
 -1        13-1.25000E+01-2.50000E+01 0.00000E+00
 -1        14 1.25000E+01-2.50000E+01 0.00000E+00
 -1        15 1.25000E+01 2.50000E+01 0.00000E+00
 -1        16-1.25000E+01 0.00000E+00 0.00000E+00
 -1        17 0.00000E+00-2.50000E+01 0.00000E+00
 -1        18 1.25000E+01 0.00000E+00 0.00000E+00
 -1        19 0.00000E+00 2.50000E+01 0.00000E+00
 -1        20-1.25000E+01 2.50000E+01 1.00000E+02
 -1        21-1.25000E+01-2.50000E+01 1.00000E+02
 -1        22 1.25000E+01-2.50000E+01 1.00000E+02
 -1        23 1.25000E+01 2.50000E+01 1.00000E+02
 -1        28-1.25000E+01 2.50000E+01 2.00000E+02
 -1        29-1.25000E+01-2.50000E+01 2.00000E+02
 -1        30 1.25000E+01-2.50000E+01 2.00000E+02
 -1        31 1.25000E+01 2.50000E+01 2.00000E+02
 -1        32-1.25000E+01 0.00000E+00 2.00000E+02
 -1        33 0.00000E+00-2.50000E+01 2.00000E+02
 -1        34 1.25000E+01 0.00000E+00 2.00000E+02
 -1        35 0.00000E+00 2.50000E+01 2.00000E+02
 -1        36-1.25000E+01 2.50000E+01 3.00000E+02
 -1        37-1.25000E+01-2.50000E+01 3.00000E+02
 -1        38 1.25000E+01-2.50000E+01 3.00000E+02
 -1        39 1.25000E+01 2.50000E+01 3.00000E+02
 -1        44-1.25000E+01 2.50000E+01 4.00000E+02
 -1        45-1.25000E+01-2.50000E+01 4.00000E+02
 -1        46 1.25000E+01-2.50000E+01 4.00000E+02
 -1        47 1.25000E+01 2.50000E+01 4.00000E+02
 -1        48-1.25000E+01 0.00000E+00 4.00000E+02
 -1        49 0.00000E+00-2.50000E+01 4.00000E+02
 -1        50 1.25000E+01 0.00000E+00 4.00000E+02
 -1        51 0.00000E+00 2.50000E+01 4.00000E+02
 -1        52-1.25000E+01 2.50000E+01 5.00000E+02
 -1        53-1.25000E+01-2.50000E+01 5.00000E+02
 -1        54 1.25000E+01-2.50000E+01 5.00000E+02
 -1        55 1.25000E+01 2.50000E+01 5.00000E+02
 -1        60-1.25000E+01 2.50000E+01 6.00000E+02
 -1        61-1.25000E+01-2.50000E+01 6.00000E+02
 -1        62 1.25000E+01-2.50000E+01 6.00000E+02
 -1        63 1.25000E+01 2.50000E+01 6.00000E+02
 -1        64-1.25000E+01 0.00000E+00 6.00000E+02
 -1        65 0.00000E+00-2.50000E+01 6.00000E+02
 -1        66 1.25000E+01 0.00000E+00 6.00000E+02
 -1        67 0.00000E+00 2.50000E+01 6.00000E+02
 -1        68-1.25000E+01 2.50000E+01 7.00000E+02
 -1        69-1.25000E+01-2.50000E+01 7.00000E+02
 -1        70 1.25000E+01-2.50000E+01 7.00000E+02
 -1        71 1.25000E+01 2.50000E+01 7.00000E+02
 -1        76-1.25000E+01 2.50000E+01 8.00000E+02
 -1        77-1.25000E+01-2.50000E+01 8.00000E+02
 -1        78 1.25000E+01-2.50000E+01 8.00000E+02
 -1        79 1.25000E+01 2.50000E+01 8.00000E+02
 -1        80-1.25000E+01 0.00000E+00 8.00000E+02
 -1        81 0.00000E+00-2.50000E+01 8.00000E+02
 -1        82 1.25000E+01 0.00000E+00 8.00000E+02
 -1        83 0.00000E+00 2.50000E+01 8.00000E+02
 -1        84-1.25000E+01 2.50000E+01 9.00000E+02
 -1        85-1.25000E+01-2.50000E+01 9.00000E+02
 -1        86 1.25000E+01-2.50000E+01 9.00000E+02
 -1        87 1.25000E+01 2.50000E+01 9.00000E+02
 -1        92-1.25000E+01 2.50000E+01 1.00000E+03
 -1        93-1.25000E+01-2.50000E+01 1.00000E+03
 -1        94 1.25000E+01-2.50000E+01 1.00000E+03
 -1        95 1.25000E+01 2.50000E+01 1.00000E+03
 -1        96-1.25000E+01 0.00000E+00 1.00000E+03
 -1        97 0.00000E+00-2.50000E+01 1.00000E+03
 -1        98 1.25000E+01 0.00000E+00 1.00000E+03
 -1        99 0.00000E+00 2.50000E+01 1.00000E+03
 -3
    3C                             5                                     1
 -1         1    4    0    1
 -2        12        28        29        13        15        31        30        14        20        32
 -2        21        16        19        35        33        17        23        34        22        18
 -1         2    4    0    1
 -2        28        44        45        29        31        47        46        30        36        48
 -2        37        32        35        51        49        33        39        50        38        34
 -1         3    4    0    1
 -2        44        60        61        45        47        63        62        46        52        64
 -2        53        48        51        67        65        49        55        66        54        50
 -1         4    4    0    1
 -2        60        76        77        61        63        79        78        62        68        80
 -2        69        64        67        83        81        65        71        82        70        66
 -1         5    4    0    1
 -2        76        92        93        77        79        95        94        78        84        96
 -2        85        80        83        99        97        81        87        98        86        82
 -3
    1PSTEP                         1           1           1          
    1PGM                1.000000E+00                                  
    1PGK                6.651691E+03                                  
    1PHID                         -1                                  
    1PSUBC                         0                                  
    1PMODE                         1                                  
  100CL  101 12.98034337          68                     2    1MODAL      1
 -4  DISP        4    1
 -5  D1          1    2    1    0
 -5  D2          1    2    2    0
 -5  D3          1    2    3    0
 -5  ALL         1    2    0    0    1ALL
 -1        12-2.06503E-04 3.40442E-03-3.05642E-12
 -1        13-2.06503E-04-3.40442E-03 3.05642E-12
 -1        14 2.06503E-04 8.36327E-03-3.05642E-12
 -1        15 2.06503E-04-8.36327E-03 3.05642E-12
 -1        16-2.06503E-04-1.13015E-12 0.00000E+00
 -1        17-5.65073E-13 2.47943E-03 0.00000E+00
 -1        18 2.06503E-04 1.13015E-12 0.00000E+00
 -1        19 5.65073E-13-2.47943E-03 0.00000E+00
 -1        20-6.20866E-01 5.53308E-03-9.14766E-02
 -1        21-6.20866E-01-5.53308E-03-9.14766E-02
 -1        22-6.24030E-01 1.32814E-02 2.18179E-01
 -1        23-6.24030E-01-1.32814E-02 2.18179E-01
 -1        28-2.47540E+00 7.56283E-03-1.82075E-01
 -1        29-2.47540E+00-7.56283E-03-1.82075E-01
 -1        30-2.48112E+00 1.79694E-02 4.34376E-01
 -1        31-2.48112E+00-1.79694E-02 4.34376E-01
 -1        32-2.48976E+00 1.46299E-10-1.81691E-01
 -1        33-2.47459E+00 5.18823E-03 1.26415E-01
 -1        34-2.49554E+00 1.72094E-10 4.34541E-01
 -1        35-2.47459E+00-5.18823E-03 1.26415E-01
 -1        36-5.51366E+00 5.63195E-03-2.62404E-01
 -1        37-5.51366E+00-5.63195E-03-2.62404E-01
 -1        38-5.51794E+00 1.35092E-02 6.26453E-01
 -1        39-5.51794E+00-1.35092E-02 6.26453E-01
 -1        44-9.51126E+00 3.65472E-03-3.23508E-01
 -1        45-9.51126E+00-3.65472E-03-3.23508E-01
 -1        46-9.51334E+00 8.72788E-03 7.72753E-01
 -1        47-9.51334E+00-8.72788E-03 7.72753E-01
 -1        48-9.51710E+00 5.26899E-10-3.23254E-01
 -1        49-9.51089E+00 2.54389E-03 2.24668E-01
 -1        50-9.51914E+00 5.73762E-10 7.73181E-01
 -1        51-9.51089E+00-2.54388E-03 2.24668E-01
 -1        52-1.42202E+01 2.85496E-03-3.68681E-01
 -1        53-1.42202E+01-2.85496E-03-3.68681E-01
 -1        54-1.42222E+01 6.79015E-03 8.80621E-01
 -1        55-1.42222E+01-6.79015E-03 8.80621E-01
 -1        60-1.94576E+01 2.05037E-03-4.01485E-01
 -1        61-1.94576E+01-2.05037E-03-4.01485E-01
 -1        62-1.94588E+01 4.89338E-03 9.59004E-01
 -1        63-1.94588E+01-4.89338E-03 9.59004E-01
 -1        64-1.94611E+01 1.03360E-09-4.01252E-01
 -1        65-1.94573E+01 1.42010E-03 2.78876E-01
 -1        66-1.94624E+01 1.09273E-09 9.59215E-01
 -1        67-1.94573E+01-1.42010E-03 2.78876E-01
 -1        68-2.50589E+01 1.24341E-03-4.22835E-01
 -1        69-2.50589E+01-1.24341E-03-4.22835E-01
 -1        70-2.50599E+01 2.95823E-03 1.01009E+00
 -1        71-2.50599E+01-2.95823E-03 1.01009E+00
 -1        76-3.08822E+01 5.00208E-04-4.34238E-01
 -1        77-3.08822E+01-5.00205E-04-4.34238E-01
 -1        78-3.08823E+01 1.19959E-03 1.03745E+00
 -1        79-3.08823E+01-1.19959E-03 1.03745E+00
 -1        80-3.08830E+01 1.58222E-09-4.34103E-01
 -1        81-3.08821E+01 3.51753E-04 3.01652E-01
 -1        82-3.08830E+01 1.63949E-09 1.03762E+00
 -1        83-3.08821E+01-3.51750E-04 3.01652E-01
 -1        84-3.68039E+01 1.81952E-04-4.38545E-01
 -1        85-3.68039E+01-1.81949E-04-4.38545E-01
 -1        86-3.68041E+01 3.94381E-04 1.04782E+00
 -1        87-3.68041E+01-3.94377E-04 1.04782E+00
 -1        92-4.27590E+01-3.30411E-05-4.39210E-01
 -1        93-4.27590E+01 3.30453E-05-4.39210E-01
 -1        94-4.27587E+01-7.14087E-05 1.04949E+00
 -1        95-4.27587E+01 7.14131E-05 1.04949E+00
 -1        96-4.27589E+01 2.12609E-09-4.39206E-01
 -1        97-4.27589E+01-1.73019E-05 3.05154E-01
 -1        98-4.27586E+01 2.18363E-09 1.04949E+00
 -1        99-4.27589E+01 1.73062E-05 3.05154E-01
 -3
    1PSTEP                         2           1           1          
    1PGM                1.000000E+00                                  
    1PGK                4.100752E+04                                  
    1PHID                         -1                                  
    1PSUBC                         0                                  
    1PMODE                         2                                  
  100CL  102 32.22937511          68                     2    2MODAL      1
 -4  DISP        4    1
 -5  D1          1    2    1    0
 -5  D2          1    2    2    0
 -5  D3          1    2    3    0
 -5  ALL         1    2    0    0    1ALL
 -1        12-1.02019E-02-1.45228E-02-3.42204E-02
 -1        13 1.02019E-02-1.45228E-02 3.42204E-02
 -1        14-2.47247E-02 1.45228E-02-3.42204E-02
 -1        15 2.47247E-02 1.45228E-02 3.42204E-02
 -1        16 1.66690E-14-1.45228E-02 0.00000E+00
 -1        17-7.26138E-03-1.32052E-13 0.00000E+00
 -1        18-1.66690E-14 1.45228E-02 0.00000E+00
 -1        19 7.26138E-03 1.32052E-13 0.00000E+00
 -1        20-6.58739E-02 6.98246E-01-3.26836E-01
 -1        21 6.58739E-02 6.98246E-01 3.26836E-01
 -1        22 3.90548E-02 7.38827E-01 3.39581E-01
 -1        23-3.90548E-02 7.38827E-01-3.39581E-01
 -1        28-4.00503E-02 2.64712E+00-6.38426E-01
 -1        29 4.00503E-02 2.64712E+00 6.38426E-01
 -1        30 2.12756E-02 2.70149E+00 6.17956E-01
 -1        31-2.12756E-02 2.70149E+00-6.17956E-01
 -1        32 8.07572E-11 2.63312E+00 6.54465E-12
 -1        33 3.06805E-02 2.67784E+00 6.28365E-01
 -1        34 8.09637E-11 2.68739E+00-1.53449E-11
 -1        35-3.06805E-02 2.67784E+00-6.28365E-01
 -1        36-6.53158E-02 5.72150E+00-8.85047E-01
 -1        37 6.53158E-02 5.72150E+00 8.85047E-01
 -1        38 4.91064E-02 5.76670E+00 8.86220E-01
 -1        39-4.91064E-02 5.76670E+00-8.86220E-01
 -1        44-5.98381E-02 9.68974E+00-1.08698E+00
 -1        45 5.98381E-02 9.68974E+00 1.08698E+00
 -1        46 4.66090E-02 9.76338E+00 1.08128E+00
 -1        47-4.66090E-02 9.76338E+00-1.08128E+00
 -1        48 3.64167E-10 9.68425E+00 1.46264E-11
 -1        49 5.32264E-02 9.72793E+00 1.08412E+00
 -1        50 3.64297E-10 9.75789E+00-3.42349E-11
 -1        51-5.32264E-02 9.72793E+00-1.08412E+00
 -1        52-7.20449E-02 1.43642E+01-1.23456E+00
 -1        53 7.20449E-02 1.43642E+01 1.23456E+00
 -1        54 6.20094E-02 1.44228E+01 1.23310E+00
 -1        55-6.20094E-02 1.44228E+01-1.23310E+00
 -1        60-6.98538E-02 1.95374E+01-1.34153E+00
 -1        61 6.98538E-02 1.95374E+01 1.34153E+00
 -1        62 6.39316E-02 1.96199E+01 1.34046E+00
 -1        63-6.39316E-02 1.96199E+01-1.34046E+00
 -1        64 8.64347E-10 1.95339E+01 2.30245E-11
 -1        65 6.69071E-02 1.95795E+01 1.34106E+00
 -1        66 8.64487E-10 1.96164E+01-5.38892E-11
 -1        67-6.69071E-02 1.95795E+01-1.34106E+00
 -1        68-7.79448E-02 2.50692E+01-1.41120E+00
 -1        69 7.79448E-02 2.50692E+01 1.41120E+00
 -1        70 7.38422E-02 2.51378E+01 1.40922E+00
 -1        71-7.38422E-02 2.51378E+01-1.40922E+00
 -1        76-7.51178E-02 3.08005E+01-1.44684E+00
 -1        77 7.51178E-02 3.08005E+01 1.44684E+00
 -1        78 7.38302E-02 3.08889E+01 1.44891E+00
 -1        79-7.38302E-02 3.08889E+01-1.44891E+00
 -1        80 1.59394E-09 3.07997E+01 3.11636E-11
 -1        81 7.44415E-02 3.08448E+01 1.44788E+00
 -1        82 1.59399E-09 3.08882E+01-7.32232E-11
 -1        83-7.44415E-02 3.08448E+01-1.44788E+00
 -1        84-8.27831E-02 3.66350E+01-1.46310E+00
 -1        85 8.27831E-02 3.66350E+01 1.46310E+00
 -1        86 8.19744E-02 3.67107E+01 1.46036E+00
 -1        87-8.19743E-02 3.67107E+01-1.46036E+00
 -1        92-7.39865E-02 4.24892E+01-1.46040E+00
 -1        93 7.39865E-02 4.24892E+01 1.46040E+00
 -1        94 7.44547E-02 4.25772E+01 1.46967E+00
 -1        95-7.44547E-02 4.25772E+01-1.46967E+00
 -1        96 2.49553E-09 4.24895E+01 3.48304E-11
 -1        97 7.43722E-02 4.25333E+01 1.46507E+00
 -1        98 2.49540E-09 4.25770E+01-8.19869E-11
 -1        99-7.43722E-02 4.25333E+01-1.46507E+00
 -3
    1PSTEP                         3           1           1          
    1PGM                1.000000E+00                                  
    1PGK                2.608863E+05                                  
    1PHID                         -1                                  
    1PSUBC                         0                                  
    1PMODE                         3                                  
  100CL  103 81.29162066          68                     2    3MODAL      1
 -4  DISP        4    1
 -5  D1          1    2    1    0
 -5  D2          1    2    2    0
 -5  D3          1    2    3    0
 -5  ALL         1    2    0    0    1ALL
 -1        12-4.09690E-03 2.14647E-02-1.96934E-12
 -1        13-4.09690E-03-2.14647E-02 1.96934E-12
 -1        14 4.09690E-03 5.26700E-02-1.96934E-12
 -1        15 4.09690E-03-5.26700E-02 1.96934E-12
 -1        16-4.09690E-03-6.69123E-13 0.00000E+00
 -1        17-3.34561E-13 1.56026E-02 0.00000E+00
 -1        18 4.09690E-03 6.69123E-13 0.00000E+00
 -1        19 3.34561E-13-1.56026E-02 0.00000E+00
 -1        20-3.55886E+00 1.79278E-02-4.77029E-01
 -1        21-3.55886E+00-1.79278E-02-4.77029E-01
 -1        22-3.56937E+00 4.46458E-02 1.13151E+00
 -1        23-3.56937E+00-4.46458E-02 1.13151E+00
 -1        28-1.19325E+01 1.31947E-02-7.12384E-01
 -1        29-1.19325E+01-1.31947E-02-7.12384E-01
 -1        30-1.19401E+01 3.13308E-02 1.68938E+00
 -1        31-1.19401E+01-3.13308E-02 1.68938E+00
 -1        32-1.19650E+01-3.36264E-12-7.04454E-01
 -1        33-1.19277E+01 8.95603E-03 4.92412E-01
 -1        34-1.19730E+01 3.55193E-11 1.69666E+00
 -1        35-1.19277E+01-8.95603E-03 4.92412E-01
 -1        36-2.16669E+01-1.08218E-02-6.71126E-01
 -1        37-2.16669E+01 1.08218E-02-6.71126E-01
 -1        38-2.16637E+01-2.69910E-02 1.59371E+00
 -1        39-2.16637E+01 2.69910E-02 1.59371E+00
 -1        44-2.89931E+01-3.45081E-02-3.57463E-01
 -1        45-2.89931E+01 3.45081E-02-3.57463E-01
 -1        46-2.89616E+01-8.18408E-02 8.50351E-01
 -1        47-2.89616E+01 8.18408E-02 8.50351E-01
 -1        48-2.89313E+01-3.30842E-11-3.54935E-01
 -1        49-2.89934E+01-2.35483E-02 2.47088E-01
 -1        50-2.88991E+01 3.75553E-11 8.54110E-01
 -1        51-2.89934E+01 2.35483E-02 2.47088E-01
 -1        52-3.06764E+01-3.70516E-02 1.16031E-01
 -1        53-3.06764E+01 3.70516E-02 1.16031E-01
 -1        54-3.06527E+01-9.00890E-02-2.79785E-01
 -1        55-3.06527E+01 9.00890E-02-2.79785E-01
 -1        60-2.56958E+01-3.77762E-02 6.23573E-01
 -1        61-2.56958E+01 3.77762E-02 6.23573E-01
 -1        62-2.56645E+01-8.95476E-02-1.48917E+00
 -1        63-2.56645E+01 8.95476E-02-1.48917E+00
 -1        64-2.56313E+01-1.02952E-10 6.22208E-01
 -1        65-2.56963E+01-2.58559E-02-4.33170E-01
 -1        66-2.55999E+01-1.82765E-11-1.49110E+00
 -1        67-2.56963E+01 2.58559E-02-4.33170E-01
 -1        68-1.40828E+01-2.73528E-02 1.06182E+00
 -1        69-1.40828E+01 2.73528E-02 1.06182E+00
 -1        70-1.40662E+01-6.61606E-02-2.53534E+00
 -1        71-1.40662E+01 6.61606E-02-2.53534E+00
 -1        76 2.54380E+00-1.65869E-02 1.36271E+00
 -1        77 2.54380E+00 1.65869E-02 1.36271E+00
 -1        78 2.55935E+00-3.88976E-02-3.25184E+00
 -1        79 2.55935E+00 3.88976E-02-3.25184E+00
 -1        80 2.57114E+00-1.96247E-10 1.35911E+00
 -1        81 2.54473E+00-1.11565E-02-9.46209E-01
 -1        82 2.58669E+00-1.07454E-10-3.25570E+00
 -1        83 2.54473E+00 1.11565E-02-9.46209E-01
 -1        84 2.21190E+01-6.05732E-03 1.50074E+00
 -1        85 2.21190E+01 6.05731E-03 1.50074E+00
 -1        86 2.21214E+01-1.42366E-02-3.58493E+00
 -1        87 2.21214E+01 1.42366E-02-3.58493E+00
 -1        92 4.27868E+01 8.66246E-04 1.52619E+00
 -1        93 4.27868E+01-8.66247E-04 1.52619E+00
 -1        94 4.27889E+01 3.59933E-03-3.64806E+00
 -1        95 4.27889E+01-3.59933E-03-3.64806E+00
 -1        96 4.27824E+01-2.86737E-10 1.52561E+00
 -1        97 4.27892E+01 1.31393E-03-1.06070E+00
 -1        98 4.27842E+01-1.96258E-10-3.64907E+00
 -1        99 4.27892E+01-1.31393E-03-1.06070E+00
 -3
    1PSTEP                         4           1           1          
    1PGM                1.000000E+00                                  
    1PGK                1.555988E+06                                  
    1PHID                         -1                                  
    1PSUBC                         0                                  
    1PMODE                         4                                  
  100CL  104 198.5287044          68                     2    4MODAL      1
 -4  DISP        4    1
 -5  D1          1    2    1    0
 -5  D2          1    2    2    0
 -5  D3          1    2    3    0
 -5  ALL         1    2    0    0    1ALL
 -1        12-6.50046E-02-7.73539E-02-2.25135E-01
 -1        13 6.50046E-02-7.73539E-02 2.25135E-01
 -1        14-1.42358E-01 7.73539E-02-2.25135E-01
 -1        15 1.42358E-01 7.73539E-02 2.25135E-01
 -1        16-3.01426E-14-7.73539E-02 0.00000E+00
 -1        17-3.86769E-02-8.31349E-14 0.00000E+00
 -1        18 3.01426E-14 7.73539E-02 0.00000E+00
 -1        19 3.86769E-02 8.31349E-14 0.00000E+00
 -1        20-5.37720E-01 4.01804E+00-1.63216E+00
 -1        21 5.37720E-01 4.01804E+00 1.63216E+00
 -1        22 4.28615E-01 4.44046E+00 1.66445E+00
 -1        23-4.28615E-01 4.44046E+00-1.66445E+00
 -1        28-5.21968E-01 1.26100E+01-2.39267E+00
 -1        29 5.21968E-01 1.26100E+01 2.39267E+00
 -1        30 5.23960E-01 1.32584E+01 2.23003E+00
 -1        31-5.23960E-01 1.32584E+01-2.23003E+00
 -1        32-2.45581E-11 1.25824E+01-7.06102E-13
 -1        33 5.23129E-01 1.29414E+01 2.31309E+00
 -1        34-2.44587E-11 1.32300E+01 1.14309E-12
 -1        35-5.23129E-01 1.29414E+01-2.31309E+00
 -1        36-7.89775E-01 2.20261E+01-2.09041E+00
 -1        37 7.89775E-01 2.20261E+01 2.09041E+00
 -1        38 8.44868E-01 2.27769E+01 2.06767E+00
 -1        39-8.44868E-01 2.27769E+01-2.06767E+00
 -1        44-8.48643E-01 2.86852E+01-1.05559E+00
 -1        45 8.48643E-01 2.86852E+01 1.05559E+00
 -1        46 9.50593E-01 2.96974E+01 1.00248E+00
 -1        47-9.50593E-01 2.96974E+01-1.00248E+00
 -1        48 7.43228E-12 2.87463E+01 2.59837E-12
 -1        49 8.99786E-01 2.91763E+01 1.02897E+00
 -1        50 7.54241E-12 2.97580E+01-6.96609E-12
 -1        51-8.99786E-01 2.91763E+01-1.02897E+00
 -1        52-9.74318E-01 2.99332E+01 4.87726E-01
 -1        53 9.74318E-01 2.99332E+01-4.87726E-01
 -1        54 1.09309E+00 3.09191E+01-4.98351E-01
 -1        55-1.09309E+00 3.09191E+01 4.98351E-01
 -1        60-9.79442E-01 2.46792E+01 2.12084E+00
 -1        61 9.79442E-01 2.46792E+01-2.12084E+00
 -1        62 1.10247E+00 2.58075E+01-2.11810E+00
 -1        63-1.10247E+00 2.58075E+01 2.11810E+00
 -1        64 8.89369E-11 2.47406E+01 2.07967E-12
 -1        65 1.04117E+00 2.52283E+01-2.11960E+00
 -1        66 8.88356E-11 2.58680E+01-5.83222E-12
 -1        67-1.04117E+00 2.52283E+01 2.11960E+00
 -1        68-1.01317E+00 1.31549E+01 3.52299E+00
 -1        69 1.01317E+00 1.31549E+01-3.52299E+00
 -1        70 1.10128E+00 1.41712E+01-3.51394E+00
 -1        71-1.10128E+00 1.41712E+01 3.51394E+00
 -1        76-9.62314E-01-3.20309E+00 4.49354E+00
 -1        77 9.62314E-01-3.20309E+00-4.49354E+00
 -1        78 1.02157E+00-2.13497E+00-4.46000E+00
 -1        79-1.02157E+00-2.13497E+00 4.46000E+00
 -1        80 8.10552E-11-3.17765E+00-3.90832E-12
 -1        81 9.91734E-01-2.67550E+00-4.47758E+00
 -1        82 8.09024E-11-2.10880E+00 8.48255E-12
 -1        83-9.91734E-01-2.67550E+00 4.47758E+00
 -1        84-9.76052E-01-2.22654E+01 4.91971E+00
 -1        85 9.76052E-01-2.22654E+01-4.91971E+00
 -1        86 9.87777E-01-2.13189E+01-4.91986E+00
 -1        87-9.87777E-01-2.13189E+01 4.91986E+00
 -1        92-9.04058E-01-4.23302E+01 5.02856E+00
 -1        93 9.04058E-01-4.23302E+01-5.02856E+00
 -1        94 9.12637E-01-4.13471E+01-4.97367E+00
 -1        95-9.12637E-01-4.13471E+01 4.97367E+00
 -1        96-8.64162E-11-4.23340E+01-7.68141E-12
 -1        97 9.09038E-01-4.18374E+01-5.00066E+00
 -1        98-8.63878E-11-4.13533E+01 1.77023E-11
 -1        99-9.09038E-01-4.18374E+01 5.00066E+00
 -3
    1PSTEP                         5           1           1          
    1PGM                1.000000E+00                                  
    1PGK                2.081277E+06                                  
    1PHID                         -1                                  
    1PSUBC                         0                                  
    1PMODE                         5                                  
  100CL  105 229.6069472          68                     2    5MODAL      1
 -4  DISP        4    1
 -5  D1          1    2    1    0
 -5  D2          1    2    2    0
 -5  D3          1    2    3    0
 -5  ALL         1    2    0    0    1ALL
 -1        12 2.09953E-02-6.31239E-02 4.66294E-14
 -1        13 2.09953E-02 6.31239E-02-4.66294E-14
 -1        14-2.09953E-02-1.53483E-01 4.66294E-14
 -1        15-2.09953E-02 1.53483E-01-4.66294E-14
 -1        16 2.09953E-02 4.08562E-14 0.00000E+00
 -1        17 2.04281E-14-4.51797E-02 0.00000E+00
 -1        18-2.09953E-02-4.08562E-14 0.00000E+00
 -1        19-2.04281E-14 4.51797E-02 0.00000E+00
 -1        20 9.18552E+00-9.87345E-03 1.10963E+00
 -1        21 9.18552E+00 9.87345E-03 1.10963E+00
 -1        22 9.19506E+00-3.12394E-02-2.61670E+00
 -1        23 9.19506E+00 3.12394E-02-2.61670E+00
 -1        28 2.50769E+01 3.95611E-02 1.00439E+00
 -1        29 2.50769E+01-3.95611E-02 1.00439E+00
 -1        30 2.50245E+01 9.51861E-02-2.34995E+00
 -1        31 2.50245E+01-9.51861E-02-2.34995E+00
 -1        32 2.50312E+01 1.84963E-11 9.73686E-01
 -1        33 2.50618E+01 2.79160E-02-6.87430E-01
 -1        34 2.49791E+01 9.67937E-12-2.37963E+00
 -1        35 2.50618E+01-2.79160E-02-6.87430E-01
 -1        36 3.22234E+01 7.37217E-02 4.88962E-03
 -1        37 3.22234E+01-7.37217E-02 4.88962E-03
 -1        38 3.21933E+01 1.87720E-01 7.19201E-03
 -1        39 3.21933E+01-1.87720E-01 7.19201E-03
 -1        44 2.41884E+01 9.11727E-02-1.22383E+00
 -1        45 2.41884E+01-9.11727E-02-1.22383E+00
 -1        46 2.40861E+01 2.20032E-01 2.89836E+00
 -1        47 2.40861E+01-2.20032E-01 2.89836E+00
 -1        48 2.40176E+01 4.74341E-11-1.20467E+00
 -1        49 2.41826E+01 6.37859E-02 8.46167E-01
 -1        50 2.39120E+01 3.24718E-11 2.91757E+00
 -1        51 2.41826E+01-6.37859E-02 8.46167E-01
 -1        52 2.31046E+00 3.20533E-03-1.78682E+00
 -1        53 2.31046E+00-3.20533E-03-1.78682E+00
 -1        54 2.32052E+00 5.32512E-03 4.24897E+00
 -1        55 2.32052E+00-5.32512E-03 4.24897E+00
 -1        60-1.98621E+01-8.73346E-02-1.26778E+00
 -1        61-1.98621E+01 8.73346E-02-1.26778E+00
 -1        62-1.98203E+01-1.98888E-01 3.00802E+00
 -1        63-1.98203E+01 1.98888E-01 3.00802E+00
 -1        64-1.97052E+01 3.82734E-11-1.24902E+00
 -1        65-1.98823E+01-5.53323E-02 8.77586E-01
 -1        66-1.96612E+01 2.43432E-11 3.02951E+00
 -1        67-1.98823E+01 5.53323E-02 8.77586E-01
 -1        68-2.82039E+01-9.99075E-02 6.86741E-02
 -1        69-2.82039E+01 9.99075E-02 6.86741E-02
 -1        70-2.81240E+01-2.53824E-01-1.59157E-01
 -1        71-2.81240E+01 2.53824E-01-1.59157E-01
 -1        76-1.76764E+01-1.00053E-01 1.49880E+00
 -1        77-1.76764E+01 1.00053E-01 1.49880E+00
 -1        78-1.76289E+01-2.22083E-01-3.54970E+00
 -1        79-1.76289E+01 2.22083E-01-3.54970E+00
 -1        80-1.75078E+01-2.57012E-11 1.48390E+00
 -1        81-1.76958E+01-6.07609E-02-1.03184E+00
 -1        82-1.74590E+01-4.41176E-11-3.56533E+00
 -1        83-1.76958E+01 6.07609E-02-1.03184E+00
 -1        84 9.28880E+00-3.84982E-02 2.35295E+00
 -1        85 9.28880E+00 3.84982E-02 2.35295E+00
 -1        86 9.32966E+00-1.01045E-01-5.59930E+00
 -1        87 9.32966E+00 1.01045E-01-5.59930E+00
 -1        92 4.33869E+01 3.08196E-04 2.55644E+00
 -1        93 4.33869E+01-3.08196E-04 2.55644E+00
 -1        94 4.33533E+01 2.96197E-02-6.08467E+00
 -1        95 4.33533E+01-2.96197E-02-6.08467E+00
 -1        96 4.33664E+01-1.09971E-10 2.54808E+00
 -1        97 4.33772E+01 1.42889E-02-1.76700E+00
 -1        98 4.33307E+01-1.26528E-10-6.09736E+00
 -1        99 4.33772E+01-1.42889E-02-1.76700E+00
 -3
    1PSTEP                         6           1           1          
    1PGM                1.000000E+00                                  
    1PGK                3.932540E+06                                  
    1PHID                         -1                                  
    1PSUBC                         0                                  
    1PMODE                         6                                  
  100CL  106 315.6143353          68                     2    6MODAL      1
 -4  DISP        4    1
 -5  D1          1    2    1    0
 -5  D2          1    2    2    0
 -5  D3          1    2    3    0
 -5  ALL         1    2    0    0    1ALL
 -1        12 7.80168E-02-2.71182E-01-6.67827E-01
 -1        13-7.80168E-02-2.71182E-01 6.67827E-01
 -1        14-1.93165E-01 2.71182E-01-6.67827E-01
 -1        15 1.93165E-01 2.71182E-01 6.67827E-01
 -1        16 7.98944E-13-2.71182E-01 0.00000E+00
 -1        17-1.35591E-01-2.09666E-13 0.00000E+00
 -1        18-7.98944E-13 2.71182E-01 0.00000E+00
 -1        19 1.35591E-01 2.09666E-13 0.00000E+00
 -1        20-5.90758E+00-1.14887E+00-3.54631E-01
 -1        21 5.90758E+00-1.14887E+00 3.54631E-01
 -1        22 5.98025E+00 4.50538E+00-6.21761E-01
 -1        23-5.98025E+00 4.50538E+00 6.21761E-01
 -1        28-1.12850E+01-3.02828E+00-2.21575E-01
 -1        29 1.12850E+01-3.02828E+00 2.21575E-01
 -1        30 1.11897E+01 8.69498E+00-7.90561E-01
 -1        31-1.11897E+01 8.69498E+00 7.90561E-01
 -1        32 8.86082E-11-3.02060E+00 3.31468E-12
 -1        33 1.12380E+01 2.83254E+00-2.98663E-01
 -1        34 8.69029E-11 8.70002E+00-7.67031E-12
 -1        35-1.12380E+01 2.83254E+00 2.98663E-01
 -1        36-1.66268E+01-4.93803E+00-1.27471E-01
 -1        37 1.66268E+01-4.93803E+00 1.27471E-01
 -1        38 1.66703E+01 1.15078E+01-7.94630E-01
 -1        39-1.66703E+01 1.15078E+01 7.94630E-01
 -1        44-2.14159E+01-7.15252E+00-8.55790E-02
 -1        45 2.14159E+01-7.15252E+00 8.55790E-02
 -1        46 2.13339E+01 1.45636E+01-7.19150E-01
 -1        47-2.13339E+01 1.45636E+01 7.19150E-01
 -1        48 9.90070E-11-7.15357E+00-1.35536E-12
 -1        49 2.13758E+01 3.70743E+00-3.25291E-01
 -1        50 9.70992E-11 1.45591E+01 3.89733E-12
 -1        51-2.13758E+01 3.70743E+00 3.25291E-01
 -1        52-2.57569E+01-8.77712E+00-1.54687E-01
 -1        53 2.57569E+01-8.77712E+00 1.54687E-01
 -1        54 2.57809E+01 1.68427E+01-5.88474E-01
 -1        55-2.57809E+01 1.68427E+01 5.88474E-01
 -1        60-2.94237E+01-1.00496E+01-2.02364E-01
 -1        61 2.94237E+01-1.00496E+01 2.02364E-01
 -1        62 2.93500E+01 1.95929E+01-3.66457E-01
 -1        63-2.93500E+01 1.95929E+01 3.66457E-01
 -1        64 6.33147E-11-1.00520E+01 2.85993E-13
 -1        65 2.93883E+01 4.77458E+00-8.92546E-02
 -1        66 6.14184E-11 1.95849E+01-2.49578E-13
 -1        67-2.93883E+01 4.77458E+00 8.92546E-02
 -1        68-3.24041E+01-1.04426E+01-2.96530E-01
 -1        69 3.24041E+01-1.04426E+01 2.96530E-01
 -1        70 3.24222E+01 2.18496E+01-1.88872E-01
 -1        71-3.24222E+01 2.18496E+01 1.88872E-01
 -1        76-3.45501E+01-1.03920E+01-2.98340E-01
 -1        77 3.45501E+01-1.03920E+01 2.98340E-01
 -1        78 3.44885E+01 2.43422E+01 2.84137E-02
 -1        79-3.44885E+01 2.43422E+01-2.84137E-02
 -1        80 7.52891E-11-1.03923E+01-2.26263E-12
 -1        81 3.45203E+01 6.97748E+00 1.60620E-01
 -1        82 7.27578E-11 2.43378E+01 5.67146E-12
 -1        83-3.45203E+01 6.97748E+00-1.60620E-01
 -1        84-3.59197E+01-9.72934E+00-3.12960E-01
 -1        85 3.59197E+01-9.72934E+00 3.12960E-01
 -1        86 3.59423E+01 2.60905E+01 1.18650E-01
 -1        87-3.59423E+01 2.60905E+01-1.18650E-01
 -1        92-3.62807E+01-8.93172E+00-1.87952E-01
 -1        93 3.62807E+01-8.93172E+00 1.87952E-01
 -1        94 3.62240E+01 2.75311E+01 3.15687E-01
 -1        95-3.62240E+01 2.75311E+01-3.15687E-01
 -1        96-8.67644E-11-8.92501E+00-7.64810E-12
 -1        97 3.62559E+01 9.30214E+00 2.49187E-01
 -1        98-8.89635E-11 2.75247E+01 1.91933E-11
 -1        99-3.62559E+01 9.30214E+00-2.49187E-01
 -3