
 displacements (vx,vy,vz) for set NALL and time  0.1000000E+01

         1  7.487732E-01  0.000000E+00  0.000000E+00
         2  7.487732E-01  1.000000E+06  5.500000E+02
         3  7.487732E-01  0.000000E+00  0.000000E+00
         4  7.487732E-01  5.189251E+05  5.500000E+02
         5  7.487732E-01  0.000000E+00  0.000000E+00
         6  7.487732E-01  8.111198E+05  6.215949E+02
         7  7.487732E-01  0.000000E+00  0.000000E+00
         8  7.487732E-01  7.952787E+05  6.182698E+02
         9  7.487732E-01  0.000000E+00  0.000000E+00
        10  7.487732E-01  9.509366E+05  6.489698E+02
        11  7.487732E-01  0.000000E+00  0.000000E+00
        12  7.487732E-01  3.586022E+05  6.489698E+02
        13  7.487732E-01  0.000000E+00  0.000000E+00
        14  7.487732E-01  7.000000E+05  8.984289E+02
        15  7.487732E-01  0.000000E+00  0.000000E+00

 temperatures for set NALL and time  0.1000000E+01

         1  0.000000E+00
         2  5.500000E+02
         3  0.000000E+00
         4  5.500000E+02
         5  0.000000E+00
         6  6.215949E+02
         7  0.000000E+00
         8  6.182698E+02
         9  0.000000E+00
        10  6.489698E+02
        11  0.000000E+00
        12  6.489698E+02
        13  0.000000E+00
        14  8.984289E+02
        15  0.000000E+00
