
 displacements (vx,vy,vz) for set NALL and time  0.1000000E+01

         1  7.370996E-01  0.000000E+00  0.000000E+00
         2  7.370996E-01  1.000000E+06  5.500000E+02
         3  7.370996E-01  0.000000E+00  0.000000E+00
         4  7.370996E-01  6.148042E+05  5.500000E+02
         5  7.370996E-01  0.000000E+00  0.000000E+00
         6  7.370996E-01  9.609862E+05  6.215949E+02
         7  7.370996E-01  0.000000E+00  0.000000E+00
         8  7.370996E-01  6.499414E+05  6.215949E+02
         9  7.370996E-01  0.000000E+00  0.000000E+00
        10  7.370996E-01  9.678906E+05  6.920715E+02
        11  7.370996E-01  0.000000E+00  0.000000E+00
        12  7.370996E-01  4.931683E+05  6.920715E+02
        13  7.370996E-01  0.000000E+00  0.000000E+00
        14  7.370996E-01  5.000000E+05  6.920715E+02
        15  7.370996E-01  0.000000E+00  0.000000E+00

 temperatures for set NALL and time  0.1000000E+01

         1  0.000000E+00
         2  5.500000E+02
         3  0.000000E+00
         4  5.500000E+02
         5  0.000000E+00
         6  6.215949E+02
         7  0.000000E+00
         8  6.215949E+02
         9  0.000000E+00
        10  6.920715E+02
        11  0.000000E+00
        12  6.920715E+02
        13  0.000000E+00
        14  6.920715E+02
        15  0.000000E+00
