
 displacements (vx,vy,vz) for set NALL and time  0.1000000E+01

         1  0.000000E+00  0.000000E+00  0.000000E+00
         2  0.000000E+00  0.000000E+00  0.000000E+00
         3  0.000000E+00  0.000000E+00  0.000000E+00
         4  0.000000E+00  0.000000E+00  0.000000E+00
         5 -7.252133E-05 -1.465679E-04  4.876073E-04
         6 -1.343298E-04 -1.441002E-04  4.744069E-04
         7 -1.294704E-04 -2.038876E-04  4.366376E-04
         8 -6.876367E-05 -2.096512E-04  4.609430E-04
         9  0.000000E+00  0.000000E+00  0.000000E+00
        10  0.000000E+00  0.000000E+00  0.000000E+00
        11  0.000000E+00  0.000000E+00  0.000000E+00
        12  0.000000E+00  0.000000E+00  0.000000E+00
        13  0.000000E+00  0.000000E+00  0.000000E+00
        14  0.000000E+00  0.000000E+00  0.000000E+00
        15  0.000000E+00  0.000000E+00  0.000000E+00
        16  0.000000E+00  0.000000E+00  0.000000E+00
        17  0.000000E+00  0.000000E+00  0.000000E+00
        18  0.000000E+00  0.000000E+00  0.000000E+00
        19  0.000000E+00  0.000000E+00  0.000000E+00
        20  0.000000E+00  0.000000E+00  0.000000E+00
        21 -7.747322E-05 -1.444549E-04  4.247379E-04
        22 -9.714777E-05 -1.450454E-04  4.007341E-04
        23 -1.164068E-04 -1.427368E-04  4.214121E-04
        24 -1.241320E-04 -1.542962E-04  4.102365E-04
        25 -1.173898E-04 -1.745455E-04  3.927317E-04
        26 -1.196312E-04 -1.844054E-04  4.026983E-04
        27 -1.107171E-04 -1.937889E-04  4.021704E-04
        28 -9.997209E-05 -1.900911E-04  3.909790E-04
        29 -8.231022E-05 -1.993103E-04  4.070786E-04
        30 -6.776203E-05 -1.876937E-04  4.140560E-04
        31 -7.434356E-05 -1.710505E-04  3.988051E-04
        32 -7.052080E-05 -1.508742E-04  4.204751E-04
        33 -1.884767E-06 -1.266264E-05  2.310750E-05
        34 -7.849984E-06 -2.442423E-05  4.890353E-05
        35 -1.400988E-05 -3.533985E-05  7.283336E-05
        36 -2.017822E-05 -4.643913E-05  9.755379E-05
        37 -2.646249E-05 -5.724113E-05  1.217541E-04
        38 -3.247346E-05 -6.821807E-05  1.459895E-04
        39 -3.881380E-05 -7.943346E-05  1.707069E-04
        40 -4.547917E-05 -9.046267E-05  1.951424E-04
        41 -5.162435E-05 -1.010901E-04  2.189278E-04
        42 -5.683864E-05 -1.115964E-04  2.421100E-04
        43 -6.253405E-05 -1.244882E-04  2.698296E-04
        44 -7.326494E-05 -1.343205E-04  2.962378E-04
        45 -7.854973E-05 -1.421055E-04  3.127587E-04
        46 -8.061948E-05 -1.504298E-04  3.288489E-04
        47 -7.380698E-05 -1.816369E-04  3.841739E-04
        48 -1.175412E-04 -1.857181E-04  3.882624E-04
        49 -8.876639E-05 -1.506974E-04  3.268481E-04
        50 -7.838083E-05 -1.384848E-04  3.128090E-04
        51 -7.514289E-05 -1.321249E-04  2.978060E-04
        52 -7.189351E-05 -1.233430E-04  2.702838E-04
        53 -6.418252E-05 -1.102485E-04  2.425200E-04
        54 -5.745265E-05 -9.910521E-05  2.195771E-04
        55 -5.151329E-05 -8.849873E-05  1.957197E-04
        56 -4.546615E-05 -7.764061E-05  1.712644E-04
        57 -3.918207E-05 -6.650939E-05  1.465608E-04
        58 -3.286042E-05 -5.546855E-05  1.223212E-04
        59 -2.674313E-05 -4.457772E-05  9.806327E-05
        60 -2.040671E-05 -3.344563E-05  7.345642E-05
        61 -1.426914E-05 -2.255304E-05  4.947916E-05
        62 -7.609541E-06 -1.117344E-05  2.433220E-05
        63 -4.166874E-06 -8.895885E-06  2.254369E-05
        64 -9.084056E-06 -1.867000E-05  4.708271E-05
        65 -1.528853E-05 -2.968409E-05  7.202562E-05
        66 -2.176284E-05 -4.092222E-05  9.656983E-05
        67 -2.801866E-05 -5.192098E-05  1.208376E-04
        68 -3.417560E-05 -6.284015E-05  1.451130E-04
        69 -4.045515E-05 -7.390478E-05  1.696457E-04
        70 -4.677975E-05 -8.496916E-05  1.940536E-04
        71 -5.286569E-05 -9.586469E-05  2.181726E-04
        72 -5.875840E-05 -1.064888E-04  2.422047E-04
        73 -6.546797E-05 -1.181712E-04  2.679720E-04
        74 -7.324330E-05 -1.303917E-04  2.931076E-04
        75 -7.750623E-05 -1.390911E-04  3.133524E-04
        76 -8.233343E-05 -1.487037E-04  3.375895E-04
        77 -8.890398E-05 -1.622889E-04  3.716268E-04
        78 -8.641110E-06 -6.461050E-06  2.262809E-05
        79 -1.589149E-05 -1.717097E-05  4.837984E-05
        80 -2.214207E-05 -2.809010E-05  7.244783E-05
        81 -2.836221E-05 -3.912753E-05  9.719401E-05
        82 -3.441452E-05 -5.012474E-05  1.213952E-04
        83 -4.059420E-05 -6.092366E-05  1.456365E-04
        84 -4.701825E-05 -7.202999E-05  1.702857E-04
        85 -5.328464E-05 -8.346824E-05  1.947562E-04
        86 -5.927972E-05 -9.429863E-05  2.186045E-04
        87 -6.501370E-05 -1.044612E-04  2.421039E-04
        88 -7.264608E-05 -1.151851E-04  2.691241E-04
        89 -7.747033E-05 -1.305438E-04  2.953069E-04
        90 -8.248611E-05 -1.389041E-04  3.126923E-04
        91 -8.646953E-05 -1.474927E-04  3.316220E-04
        92 -1.075653E-04 -1.513279E-04  3.806085E-04
        93  0.000000E+00  0.000000E+00  0.000000E+00
        94  0.000000E+00  0.000000E+00  0.000000E+00
        95  0.000000E+00  0.000000E+00  0.000000E+00
        96  0.000000E+00  0.000000E+00  0.000000E+00
        97  0.000000E+00  0.000000E+00  0.000000E+00
        98 -9.712117E-05 -1.560835E-04  3.744905E-04
        99 -8.438454E-05 -1.712126E-04  3.744314E-04
       100 -9.576553E-05 -1.688490E-04  3.644007E-04
       101 -1.072622E-04 -1.714081E-04  3.746314E-04
       102 -9.737787E-05 -1.805001E-04  3.742208E-04
       103 -4.814456E-06 -1.217872E-05  2.471956E-05
       104 -1.260475E-05 -2.294669E-05  4.914607E-05
       105 -1.098616E-05 -2.328468E-05  4.867525E-05
       106 -9.447525E-06 -2.386410E-05  4.888786E-05
       107 -1.719921E-05 -3.438492E-05  7.328253E-05
       108 -2.508417E-05 -4.497958E-05  9.782704E-05
       109 -2.343889E-05 -4.541003E-05  9.765014E-05
       110 -2.180626E-05 -4.588976E-05  9.756802E-05
       111 -2.965405E-05 -5.638639E-05  1.220476E-04
       112 -3.754011E-05 -6.697748E-05  1.465352E-04
       113 -3.586726E-05 -6.740208E-05  1.464285E-04
       114 -3.416561E-05 -6.787107E-05  1.462836E-04
       115 -4.215733E-05 -7.852757E-05  1.708238E-04
       116 -4.990689E-05 -8.892319E-05  1.954805E-04
       117 -4.839433E-05 -8.946999E-05  1.955010E-04
       118 -4.695944E-05 -8.982146E-05  1.950861E-04
       119 -5.448296E-05 -9.997102E-05  2.193100E-04
       120 -6.250911E-05 -1.111305E-04  2.435673E-04
       121 -6.052259E-05 -1.116371E-04  2.437030E-04
       122 -5.860568E-05 -1.119381E-04  2.436225E-04
       123 -6.749520E-05 -1.237403E-04  2.687011E-04
       124 -7.381402E-05 -1.325468E-04  2.947740E-04
       125 -7.354482E-05 -1.340237E-04  2.949263E-04
       126 -7.358697E-05 -1.334866E-04  2.934752E-04
       127 -7.832901E-05 -1.391718E-04  3.155290E-04
       128 -8.808512E-05 -1.550575E-04  3.358630E-04
       129 -8.318007E-05 -1.563094E-04  3.340822E-04
       130 -8.131962E-05 -1.547524E-04  3.373805E-04
       131 -9.554097E-05 -1.819344E-04  3.750751E-04
       132 -3.197976E-06 -1.083471E-05  2.349555E-05
       133 -8.155008E-06 -2.290088E-05  4.854222E-05
       134 -8.425646E-06 -2.146744E-05  4.804511E-05
       135 -8.752232E-06 -2.011123E-05  4.770925E-05
       136 -1.463309E-05 -3.256802E-05  7.247845E-05
       137 -2.054028E-05 -4.505871E-05  9.723615E-05
       138 -2.095344E-05 -4.364608E-05  9.698463E-05
       139 -2.135240E-05 -4.227099E-05  9.672363E-05
       140 -2.723617E-05 -5.457720E-05  1.212983E-04
       141 -3.299921E-05 -6.689786E-05  1.458388E-04
       142 -3.342735E-05 -6.558864E-05  1.456516E-04
       143 -3.381881E-05 -6.422890E-05  1.454222E-04
       144 -3.959582E-05 -7.662396E-05  1.700620E-04
       145 -4.559817E-05 -8.910967E-05  1.948367E-04
       146 -4.595401E-05 -8.776018E-05  1.946245E-04
       147 -4.631863E-05 -8.631955E-05  1.942408E-04
       148 -5.223729E-05 -9.843729E-05  2.186384E-04
       149 -5.768021E-05 -1.105966E-04  2.428538E-04
       150 -5.798250E-05 -1.095199E-04  2.431060E-04
       151 -5.850957E-05 -1.081559E-04  2.429796E-04
       152 -6.442339E-05 -1.209127E-04  2.678733E-04
       153 -7.153463E-05 -1.332466E-04  2.933550E-04
       154 -7.094779E-05 -1.326537E-04  2.929171E-04
       155 -7.171056E-05 -1.310407E-04  2.919157E-04
       156 -7.844583E-05 -1.409265E-04  3.149568E-04
       157 -8.094562E-05 -1.517087E-04  3.375418E-04
       158 -7.861250E-05 -1.506091E-04  3.362538E-04
       159 -8.165119E-05 -1.511903E-04  3.404803E-04
       160 -8.902399E-05 -1.694860E-04  3.717031E-04
       161 -6.512923E-06 -7.952595E-06  2.350961E-05
       162 -1.079077E-05 -1.824110E-05  4.759572E-05
       163 -1.239508E-05 -1.783190E-05  4.779037E-05
       164 -1.408710E-05 -1.753437E-05  4.819795E-05
       165 -1.875933E-05 -2.884257E-05  7.227487E-05
       166 -2.336919E-05 -4.043472E-05  9.661315E-05
       167 -2.501769E-05 -3.996757E-05  9.678302E-05
       168 -2.671285E-05 -3.950438E-05  9.693670E-05
       169 -3.121757E-05 -5.100945E-05  1.211133E-04
       170 -3.583273E-05 -6.242049E-05  1.453314E-04
       171 -3.745501E-05 -6.198255E-05  1.454712E-04
       172 -3.901846E-05 -6.151354E-05  1.455810E-04
       173 -4.369991E-05 -7.296320E-05  1.698848E-04
       174 -4.835461E-05 -8.449862E-05  1.941267E-04
       175 -5.002077E-05 -8.406716E-05  1.943701E-04
       176 -5.164872E-05 -8.364734E-05  1.945091E-04
       177 -5.603704E-05 -9.501240E-05  2.184503E-04
       178 -6.068775E-05 -1.061280E-04  2.428668E-04
       179 -6.232704E-05 -1.056294E-04  2.429632E-04
       180 -6.370015E-05 -1.052755E-04  2.427668E-04
       181 -6.876401E-05 -1.171027E-04  2.677964E-04
       182 -7.400119E-05 -1.290633E-04  2.917328E-04
       183 -7.564595E-05 -1.282029E-04  2.923329E-04
       184 -7.642276E-05 -1.289763E-04  2.927450E-04
       185 -8.002705E-05 -1.396659E-04  3.146512E-04
       186 -8.524611E-05 -1.478720E-04  3.406723E-04
       187 -8.545889E-05 -1.453549E-04  3.372094E-04
       188 -8.654025E-05 -1.471210E-04  3.386769E-04
       189 -9.625743E-05 -1.625177E-04  3.714286E-04
       190 -8.248716E-06 -8.857672E-06  2.421624E-05
       191 -1.548152E-05 -1.852051E-05  4.861370E-05
       192 -1.502948E-05 -1.982001E-05  4.863999E-05
       193 -1.465815E-05 -2.116409E-05  4.910410E-05
       194 -2.121126E-05 -3.078610E-05  7.308225E-05
       195 -2.788628E-05 -4.046653E-05  9.731480E-05
       196 -2.749795E-05 -4.180492E-05  9.749746E-05
       197 -2.711172E-05 -4.318591E-05  9.775793E-05
       198 -3.365584E-05 -5.278250E-05  1.218574E-04
       199 -4.031363E-05 -6.233768E-05  1.459973E-04
       200 -3.991212E-05 -6.376084E-05  1.462230E-04
       201 -3.956376E-05 -6.514928E-05  1.464259E-04
       202 -4.626823E-05 -7.485041E-05  1.706439E-04
       203 -5.272685E-05 -8.469649E-05  1.948109E-04
       204 -5.242091E-05 -8.591379E-05  1.952999E-04
       205 -5.192413E-05 -8.716549E-05  1.953967E-04
       206 -5.819960E-05 -9.664579E-05  2.191482E-04
       207 -6.530085E-05 -1.059128E-04  2.434377E-04
       208 -6.506671E-05 -1.073351E-04  2.434475E-04
       209 -6.474187E-05 -1.089217E-04  2.433939E-04
       210 -7.215615E-05 -1.194546E-04  2.684968E-04
       211 -7.713891E-05 -1.302963E-04  2.928863E-04
       212 -7.796610E-05 -1.303743E-04  2.944341E-04
       213 -7.623955E-05 -1.308036E-04  2.946121E-04
       214 -7.900511E-05 -1.392889E-04  3.155811E-04
       215 -9.004077E-05 -1.479520E-04  3.385149E-04
       216 -9.093307E-05 -1.471459E-04  3.340218E-04
       217 -9.073985E-05 -1.507766E-04  3.358052E-04
       218 -1.070616E-04 -1.678551E-04  3.732283E-04
       219 -5.788928E-06 -1.009081E-05  2.483428E-05
       220 -1.132614E-05 -2.186464E-05  4.846168E-05
       221 -1.330678E-05 -2.017142E-05  4.846652E-05
       222 -1.163208E-05 -2.048440E-05  4.812676E-05
       223 -1.004954E-05 -2.097176E-05  4.821474E-05
       224 -1.200608E-05 -1.917157E-05  4.806794E-05
       225 -1.796357E-05 -3.166553E-05  7.281562E-05
       226 -2.381388E-05 -4.403975E-05  9.739637E-05
       227 -2.585333E-05 -4.222442E-05  9.730905E-05
       228 -2.420045E-05 -4.266189E-05  9.717966E-05
       229 -2.257525E-05 -4.314088E-05  9.703480E-05
       230 -2.460261E-05 -4.131749E-05  9.694614E-05
       231 -3.044589E-05 -5.369926E-05  1.215783E-04
       232 -3.627025E-05 -6.604115E-05  1.462007E-04
       233 -3.829562E-05 -6.422972E-05  1.461088E-04
       234 -3.665771E-05 -6.466709E-05  1.459266E-04
       235 -3.503044E-05 -6.514311E-05  1.458227E-04
       236 -3.706344E-05 -6.331154E-05  1.457196E-04
       237 -4.294030E-05 -7.576229E-05  1.703723E-04
       238 -4.874971E-05 -8.806026E-05  1.949944E-04
       239 -5.073828E-05 -8.627260E-05  1.948731E-04
       240 -4.914030E-05 -8.670836E-05  1.946276E-04
       241 -4.759273E-05 -8.720554E-05  1.945656E-04
       242 -4.956520E-05 -8.543175E-05  1.944598E-04
       243 -5.527460E-05 -9.755834E-05  2.191803E-04
       244 -6.108456E-05 -1.102296E-04  2.437726E-04
       245 -6.343532E-05 -1.080855E-04  2.436835E-04
       246 -6.154191E-05 -1.086345E-04  2.433651E-04
       247 -5.962832E-05 -1.091398E-04  2.433918E-04
       248 -6.197570E-05 -1.070021E-04  2.432803E-04
       249 -6.815923E-05 -1.202704E-04  2.679613E-04
       250 -7.379916E-05 -1.322943E-04  2.926706E-04
       251 -7.575487E-05 -1.305576E-04  2.923855E-04
       252 -7.428550E-05 -1.311364E-04  2.919329E-04
       253 -7.297489E-05 -1.317770E-04  2.920079E-04
       254 -7.487134E-05 -1.300310E-04  2.917907E-04
       255 -7.923603E-05 -1.398148E-04  3.165702E-04
       256 -8.500386E-05 -1.549710E-04  3.408941E-04
       257 -8.948345E-05 -1.500442E-04  3.407905E-04
       258 -8.620111E-05 -1.521881E-04  3.434172E-04
       259 -8.157856E-05 -1.515915E-04  3.409011E-04
       260 -8.603559E-05 -1.478894E-04  3.411991E-04
       261 -9.512501E-05 -1.686123E-04  3.615821E-04

 stresses (elem, integ.pnt.,sxx,syy,szz,sxy,sxz,syz) for set EALL and time  0.1000000E+01

         1   1 -9.840320E-01 -9.096294E-01  8.600586E+00 -3.220830E-01 -9.041272E-01 -8.049107E-01
         1   2 -6.297851E-01 -5.616905E-01  9.136195E+00  6.748317E-02  1.974990E-01 -4.236817E-01
         1   3 -5.734320E-01 -4.382398E-01  9.089047E+00  1.454270E-01 -5.520068E-01  1.975165E-01
         1   4 -3.034791E-01 -1.769116E-01  9.566875E+00  4.447440E-01  4.052227E-01  4.431637E-01
         1   5  1.323417E-01  1.333248E-01  9.280604E+00  5.520518E-02  2.161624E-01  1.981073E-01
         1   6  7.670949E-02  7.224431E-02  8.935594E+00 -4.148992E-02  5.036899E-02  1.309951E-01
         1   7  2.591205E-02  2.579228E-02  9.018618E+00 -7.415420E-02  1.276406E-01 -2.686296E-03
         1   8  6.879728E-02  7.099585E-02  8.788775E+00 -5.683144E-02  1.380488E-01  9.884522E-02
         2   1 -7.396652E-01 -7.495240E-01  8.870885E+00 -1.037705E-03 -3.053084E-02 -7.266434E-01
         2   2 -4.816066E-01 -5.390865E-01  8.709329E+00  1.627139E-01  7.795452E-01 -6.139433E-01
         2   3 -4.426275E-01 -3.983998E-01  9.298776E+00  3.417481E-01  1.405047E-01  8.569406E-02
         2   4 -2.774686E-01 -2.879494E-01  9.084357E+00  4.046294E-01  7.948375E-01  5.064939E-02
         2   5 -3.728026E-02 -6.700965E-02  8.866388E+00 -1.543148E-01 -2.776178E-01  1.208282E-03
         2   6  6.502864E-03 -6.649620E-02  9.346807E+00 -1.062189E-01 -2.483707E-01  1.176358E-01
         2   7 -4.666305E-03 -3.248588E-02  8.734859E+00 -1.121971E-01 -1.402508E-01  4.005607E-02
         2   8  5.825573E-02 -2.818872E-02  9.150442E+00 -6.698028E-02 -8.633076E-02  1.812338E-01
         3   1 -7.209920E-01 -5.345540E-01  8.820162E+00  3.364223E-02 -8.063506E-01 -2.145655E-03
         3   2 -4.862943E-01 -3.087498E-01  9.289213E+00  3.027035E-01  8.038017E-02  1.995442E-01
         3   3 -4.716657E-01 -2.263539E-01  8.715894E+00  2.508056E-01 -6.852900E-01  6.060558E-01
         3   4 -3.352058E-01 -9.773004E-02  9.127651E+00  4.174453E-01  4.422455E-02  6.585051E-01
         3   5 -1.206429E-01 -1.111270E-01  8.949023E+00 -1.992770E-01  7.472234E-03 -2.730121E-01
         3   6 -5.348550E-02 -3.801130E-02  8.737402E+00 -1.398060E-01  8.610046E-02 -1.301472E-01
         3   7 -1.269462E-01 -4.910294E-02  9.329018E+00 -1.416794E-01  1.070281E-01 -1.887073E-01
         3   8 -6.447832E-02  3.540377E-02  9.083935E+00 -8.669505E-02  2.175497E-01 -3.202070E-02
         4   1 -6.090245E-01 -5.122782E-01  9.062728E+00  2.181832E-01 -1.579246E-01 -1.283334E-01
         4   2 -4.412221E-01 -3.906085E-01  8.894207E+00  3.025940E-01  4.785535E-01 -1.381377E-01
         4   3 -4.445727E-01 -2.984131E-01  8.943286E+00  3.454845E-01 -1.729943E-01  3.351547E-01
         4   4 -3.174867E-01 -2.182259E-01  8.790810E+00  3.891929E-01  3.884572E-01  2.615126E-01
         4   5 -1.221900E-01 -1.309553E-01  8.654480E+00 -1.999904E-01 -1.750993E-01 -1.843201E-01
         4   6 -2.168021E-02 -8.932999E-02  9.018245E+00 -1.202562E-01 -8.259777E-02  2.773548E-03
         4   7 -9.436582E-02 -2.769538E-02  8.954023E+00 -1.128299E-01 -5.882384E-03 -5.185341E-02
         4   8  1.558318E-02  1.968548E-02  9.151788E+00 -6.464084E-02  6.577831E-02  9.189202E-02
         5   1  2.696574E-02  2.058987E-02  8.900815E+00  4.644197E-03  1.518060E-02  7.541932E-03
         5   2 -4.831305E-02 -3.552913E-03  9.000757E+00  2.540254E-02 -1.027630E-01 -1.613062E-02
         5   3  2.356415E-02 -3.200589E-02  8.979553E+00  2.829533E-02  2.846167E-02 -4.005967E-02
         5   4 -1.235014E-01 -1.296135E-01  8.940767E+00 -4.060812E-02 -2.146850E-01 -2.000971E-01
         5   5  2.363949E-03  9.638429E-04  9.043355E+00  4.921765E-03  1.098985E-03  5.507315E-03
         5   6 -7.928473E-03  5.401840E-03  8.984623E+00 -1.141361E-02  1.836152E-02 -1.015375E-02
         5   7  3.591691E-03 -1.065958E-02  8.997306E+00 -7.370928E-03 -1.895939E-02  8.133420E-03
         5   8  3.926596E-03  5.077834E-03  8.974736E+00 -5.431301E-03  9.950904E-03  4.967790E-03
         6   1  7.915133E-02  1.723812E-01  9.154883E+00  1.378232E-01  2.689319E-01  1.821778E-01
         6   2 -5.998614E-03  7.302891E-02  8.865907E+00  1.662938E-02 -1.765541E-02  2.226694E-03
         6   3  8.051160E-03  3.134801E-02  9.085395E+00  7.724639E-02  1.439033E-01 -1.737485E-02
         6   4 -9.885364E-02 -1.009158E-01  8.843200E+00 -6.736195E-02 -1.619629E-01 -2.205692E-01
         6   5 -3.297949E-02 -3.112231E-02  8.951910E+00 -2.820644E-02 -6.988874E-02 -5.035588E-02
         6   6  3.017493E-02  3.507885E-02  9.102931E+00  3.701883E-02  4.999932E-02  5.865593E-02
         6   7  1.090747E-03 -1.596127E-02  8.950792E+00 -1.732882E-02 -4.525571E-02 -1.905593E-02
         6   8  3.567703E-02  2.581615E-02  9.036191E+00  1.028478E-02  1.295089E-02  4.509314E-02
         7   1  1.999873E-01  1.206246E-01  9.134322E+00  1.689260E-01  2.051492E-01  2.686270E-01
         7   2  4.333258E-02  2.581918E-02  9.081846E+00  1.103004E-01 -6.130796E-02  1.108377E-01
         7   3  9.140855E-02 -1.680051E-03  8.883526E+00  2.936983E-02  3.459252E-02 -2.336566E-02
         7   4 -9.183409E-02 -1.102326E-01  8.850425E+00 -4.934796E-02 -2.575088E-01 -1.848840E-01
         7   5 -3.656221E-02 -4.152416E-02  8.956137E+00 -4.778274E-02 -5.497231E-02 -7.469986E-02
         7   6 -1.732421E-02  2.583776E-04  8.949932E+00 -3.005334E-02 -1.345877E-02 -4.313471E-02
         7   7  4.205453E-02  3.332251E-02  9.101874E+00  2.622135E-02  5.979267E-02  5.264631E-02
         7   8  3.526408E-02  3.814879E-02  9.029214E+00  1.490789E-03  5.355120E-02  1.633789E-02
         8   1  1.541307E-01  1.703807E-01  9.222836E+00  1.956893E-01  2.713483E-01  2.629094E-01
         8   2  4.562837E-02  3.174751E-02  9.034796E+00  5.317759E-02 -3.175258E-02  5.643119E-02
         8   3  1.441560E-02  3.157208E-02  9.033563E+00  3.688674E-02  5.732415E-02 -2.934030E-02
         8   4 -4.591082E-02 -5.468371E-02  8.987410E+00 -4.802710E-02 -1.772561E-01 -1.589304E-01
         8   5  6.270317E-03  4.188993E-03  8.941947E+00 -1.062536E-02 -3.145956E-02 -2.820510E-02
         8   6  3.128858E-02  4.073190E-02  8.996688E+00  2.099136E-02  9.607234E-04  2.690002E-02
         8   7  4.689352E-02  2.972854E-02  8.992285E+00  1.635635E-02  2.794447E-02  4.338486E-03
         8   8  3.346372E-02  2.815835E-02  8.990078E+00  1.036930E-02 -6.162090E-04  3.024943E-03
         9   1 -4.786300E-03 -2.100413E-03  8.982783E+00  7.416926E-03 -9.147523E-03 -5.568836E-03
         9   2 -2.503059E-03 -3.478693E-03  9.012946E+00  3.794606E-03  2.470855E-03  1.135923E-03
         9   3 -2.606076E-03  2.875260E-03  9.006080E+00  4.969551E-03  3.255890E-03  3.920085E-03
         9   4  1.705664E-02  1.731715E-02  9.034483E+00  1.679168E-02  3.146628E-02  2.901806E-02
         9   5 -7.559535E-03 -9.238727E-03  8.978382E+00 -2.902442E-02  6.736996E-04 -3.589216E-03
         9   6  1.545751E-02 -2.353969E-03  9.009860E+00  7.338295E-03  6.913593E-03  1.628435E-02
         9   7 -1.060894E-02  1.068888E-02  9.004195E+00 -8.195286E-05  1.029471E-02  4.105256E-03
         9   8 -1.138622E-02 -1.083923E-02  8.987717E+00 -5.117203E-03 -2.560112E-02 -1.867746E-02
        10   1 -9.828959E-03 -5.026724E-03  9.013010E+00  6.127471E-03  1.204460E-02 -5.734922E-03
        10   2 -2.395927E-02 -1.491264E-02  8.960505E+00 -2.660914E-02 -1.229308E-02 -2.585379E-02
        10   3 -1.461762E-02 -5.742997E-03  9.006096E+00 -1.096930E-02 -2.310779E-02 -7.503673E-03
        10   4  1.608038E-02  4.063477E-02  9.019732E+00  1.322730E-02  4.173924E-02  5.136616E-02
        10   5  1.266647E-02  2.833478E-03  9.015759E+00 -9.148006E-03  3.602171E-02  6.909036E-03
        10   6 -1.390738E-02 -2.769381E-02  8.970185E+00 -2.715030E-03 -3.959419E-02 -1.470257E-02
        10   7 -1.204831E-03  8.344505E-03  9.010059E+00  8.358628E-03  3.016404E-02 -1.611681E-03
        10   8 -2.399553E-02 -1.917893E-02  8.995218E+00  2.276852E-02 -2.180631E-02 -1.091555E-02
        11   1 -4.212326E-04 -7.865058E-03  9.011963E+00  2.403224E-02 -5.012578E-03  1.693231E-02
        11   2 -2.583403E-03 -1.343766E-02  9.007826E+00 -4.434257E-03  5.682948E-03 -1.705921E-02
        11   3 -1.693146E-02 -2.755956E-02  8.959991E+00 -1.383442E-02 -3.786798E-02 -1.616776E-02
        11   4  4.255699E-02  1.940221E-02  9.023262E+00  1.932377E-02  5.293538E-02  4.561500E-02
        11   5  5.293224E-04  1.675838E-02  9.018431E+00 -1.489645E-02  6.327915E-03  3.329088E-02
        11   6  1.051609E-02  5.362101E-03  9.014330E+00  1.655549E-02 -9.074520E-03  3.193734E-02
        11   7 -3.603250E-02 -1.963548E-02  8.968595E+00 -1.866348E-02 -5.755604E-03 -4.450202E-02
        11   8 -2.426346E-02 -2.580046E-02  8.994229E+00  1.802826E-02 -1.307030E-02 -2.218801E-02
        12   1 -5.182604E-02 -5.696421E-02  8.962950E+00 -5.250124E-02 -7.883655E-02 -8.221597E-02
        12   2 -2.383061E-02 -1.754217E-02  8.986294E+00 -3.052125E-02  2.639213E-03 -3.186989E-02
        12   3 -1.112558E-02 -2.163314E-02  8.988998E+00 -2.296741E-02 -4.020851E-02 -5.853699E-03
        12   4  1.453220E-02  1.803705E-02  9.023080E+00  8.411018E-03  5.423961E-02  4.984021E-02
        12   5  2.599676E-02  3.182266E-02  9.041479E+00  2.373350E-02  5.688012E-02  5.727025E-02
        12   6 -2.114874E-02 -1.568105E-02  9.001158E+00 -7.116058E-03 -1.361282E-02 -1.033910E-02
        12   7 -1.359702E-02 -1.353823E-02  9.005123E+00 -2.683170E-03 -3.978606E-04 -6.635531E-03
        12   8 -1.318832E-02 -1.206954E-02  8.985282E+00  8.916020E-03 -1.836304E-02 -1.663597E-02
        13   1  2.455059E-02  2.353494E-02  9.048680E+00  2.188583E-02  1.292328E-02  1.311312E-02
        13   2  9.079661E-03 -5.720413E-03  8.968588E+00 -9.297750E-03 -3.715344E-02 -2.425482E-02
        13   3 -2.759679E-03  3.967319E-03  8.972947E+00 -1.420930E-02 -2.032513E-02 -3.687382E-02
        13   4  1.043725E-02  5.018213E-03  8.983238E+00 -3.795955E-03 -1.122143E-02 -1.306596E-02
        13   5 -1.540084E-02 -1.706442E-02  8.975488E+00  2.426779E-03 -5.976913E-02 -4.967402E-02
        13   6 -2.676774E-02  4.515630E-02  9.056349E+00 -1.041696E-02  9.788906E-02 -1.454377E-02
        13   7  6.858984E-02 -2.818165E-03  9.064921E+00  2.531898E-02 -1.984529E-02  9.336269E-02
        13   8  1.740693E-02  2.198444E-02  9.004734E+00 -9.888623E-03  5.668945E-02  4.010352E-02
        14   1  5.733716E-02  2.199392E-02  8.988474E+00  4.333041E-03  2.471476E-02  2.164570E-02
        14   2  4.813774E-02  1.169286E-02  9.045683E+00  7.541369E-04  2.978438E-02  6.864855E-03
        14   3  2.162300E-02  6.444710E-03  8.989789E+00  1.281545E-04 -6.011032E-03 -2.340782E-03
        14   4  1.387401E-02 -6.671049E-03  8.989683E+00 -1.173362E-02 -3.551086E-03 -2.468839E-02
        14   5 -9.114185E-02 -4.625912E-02  8.962334E+00  2.646213E-02 -1.663842E-01 -8.042980E-02
        14   6  3.399051E-02  3.867791E-02  9.025750E+00  4.287084E-02  1.076804E-01  1.747800E-02
        14   7 -7.724960E-03 -1.943299E-02  8.962034E+00 -1.184100E-02 -4.542192E-02  1.487382E-03
        14   8  7.351103E-02  2.394954E-02  9.048005E+00 -3.173250E-02  9.915956E-02  4.212859E-02
        15   1  2.566153E-02  5.637891E-02  8.991893E+00  3.159550E-03  2.125489E-02  2.583425E-02
        15   2  5.087414E-03  1.227324E-02  8.986315E+00 -8.251830E-03 -6.087369E-03 -1.521450E-02
        15   3  1.608044E-02  5.357541E-02  9.041059E+00  5.162814E-03  4.676654E-03  4.151281E-02
        15   4 -7.181077E-03  1.277583E-02  8.994625E+00 -1.176269E-02 -2.247572E-02 -3.878717E-03
        15   5 -5.084743E-02 -9.466477E-02  8.941031E+00  2.180852E-02 -9.247486E-02 -1.573605E-01
        15   6 -2.409305E-02 -1.538600E-02  8.950998E+00 -3.115305E-02  1.526186E-02 -4.568318E-02
        15   7  5.566727E-02  4.617203E-02  9.043400E+00  6.969327E-02  1.138538E-02  1.047138E-01
        15   8  3.210376E-02  7.725350E-02  9.040171E+00 -2.437798E-02  4.615974E-02  8.795014E-02
        16   1  4.650553E-03  3.335258E-03  8.988605E+00 -2.446164E-03 -1.248919E-02 -1.704138E-02
        16   2  3.219338E-02  1.817292E-02  9.004137E+00  1.978590E-02  1.031521E-02  3.208518E-02
        16   3  7.679846E-03  1.955273E-02  9.000471E+00  9.097296E-03  2.244146E-02  8.558342E-04
        16   4  4.408331E-03  1.780665E-03  9.005812E+00 -4.299727E-03 -6.796224E-03 -4.553383E-03
        16   5 -3.524326E-02 -4.433497E-02  8.921515E+00 -1.044402E-02 -7.355498E-02 -6.781861E-02
        16   6  1.205088E-02  6.627445E-03  8.993993E+00 -4.128066E-03  3.462969E-02 -4.921033E-02
        16   7  1.997822E-02  2.336335E-02  8.995745E+00  1.078620E-02 -5.202767E-02  3.827319E-02
        16   8  1.539694E-02  1.926347E-02  9.013529E+00 -2.392450E-02  4.062287E-02  3.922282E-02
        17   1 -8.273860E-02 -7.142272E-02  8.953967E+00  1.247713E-02 -2.180497E-02 -2.319340E-02
        17   2 -6.475442E-02 -3.722887E-02  8.971532E+00  3.298064E-02 -3.677670E-02  5.040506E-02
        17   3 -4.999846E-02 -6.003249E-02  8.977496E+00  3.096694E-02  6.874097E-02 -1.975307E-02
        17   4 -8.500436E-03  5.289963E-03  9.152512E+00  1.071656E-01  1.052122E-01  1.213486E-01
        17   5  1.275390E-01  1.232107E-01  8.956923E+00 -1.033580E-01  3.161181E-01  2.874718E-01
        17   6  7.329603E-02 -1.197394E-01  8.976151E+00 -7.081278E-02 -1.520576E-01  6.840664E-03
        17   7 -1.679640E-01  6.085895E-03  8.919480E+00 -1.710998E-01 -2.016345E-02 -1.646413E-01
        17   8 -1.867836E-01 -2.142504E-01  8.748570E+00 -2.466962E-01 -4.142774E-01 -4.041664E-01
        18   1 -1.222472E-01 -4.487762E-02  8.973287E+00 -4.340131E-02 -4.115151E-02  2.180815E-03
        18   2 -1.426091E-01 -1.932331E-02  8.932102E+00 -5.597513E-02 -5.389119E-02 -4.028015E-02
        18   3 -3.676529E-02 -1.232749E-02  9.115098E+00  3.855867E-02  3.434988E-02  8.545497E-02
        18   4 -8.674267E-02 -1.533419E-02  8.943032E+00 -2.259703E-02 -7.560759E-02 -1.255499E-02
        18   5  2.048394E-01  1.410484E-01  9.270378E+00  5.419455E-02  5.048585E-01  2.447534E-01
        18   6 -1.151605E-01 -1.203689E-01  8.798677E+00  1.525598E-02 -4.652495E-01  8.125363E-02
        18   7 -1.707343E-02 -5.158842E-03  8.973568E+00 -3.243703E-02  1.117516E-01 -1.664340E-01
        18   8 -1.468828E-01 -5.686087E-02  8.983179E+00  1.875946E-01 -1.480969E-01 -7.640982E-02
        19   1 -5.565903E-02 -1.199053E-01  8.973960E+00 -3.897181E-02  2.043155E-02 -5.674296E-02
        19   2 -2.616956E-02 -3.102945E-02  9.114538E+00  4.490728E-02  7.827045E-02  4.482405E-02
        19   3 -1.972332E-02 -1.362775E-01  8.927054E+00 -5.731602E-02 -4.642222E-02 -6.823405E-02
        19   4 -1.752922E-02 -8.693296E-02  8.946583E+00 -2.077566E-02 -1.324559E-02 -6.408342E-02
        19   5  1.745007E-01  2.087091E-01  9.320262E+00  8.368200E-02  2.519532E-01  5.089616E-01
        19   6  6.020222E-02  4.046123E-02  9.030156E+00  5.291735E-02 -1.650192E-01  1.318570E-01
        19   7 -2.016226E-01 -1.961800E-01  8.776817E+00 -7.742802E-02  1.114802E-01 -4.616753E-01
        19   8 -6.856103E-02 -1.445396E-01  8.985732E+00  1.613184E-01 -1.123383E-01 -1.331704E-01
        20   1 -4.611108E-02 -4.397317E-02  9.076059E+00  8.480893E-03  1.102086E-02  1.945202E-02
        20   2 -5.435791E-02 -3.816186E-02  8.971601E+00 -2.745938E-03 -4.987066E-02  1.036874E-05
        20   3 -3.778238E-02 -6.072635E-02  8.972522E+00 -1.511608E-02  7.055464E-03 -4.246239E-02
        20   4 -2.479462E-02 -2.838821E-02  8.998657E+00  2.644652E-02  1.368908E-02  3.628539E-03
        20   5  1.794701E-01  2.018444E-01  9.174235E+00  2.027315E-02  2.862268E-01  2.689306E-01
        20   6 -6.164733E-03  1.361258E-03  9.119398E+00 -5.033637E-02  4.736280E-03  1.085101E-01
        20   7 -1.540078E-02 -5.375479E-03  9.103544E+00 -4.802602E-02  1.292497E-01 -2.647273E-03
        20   8 -9.034250E-02 -8.674523E-02  8.862929E+00 -6.905623E-02 -2.391722E-01 -2.294345E-01
        21   1  1.801274E-01  1.568033E-01  9.312107E+00  1.788839E-01 -1.186172E-01 -8.900620E-02