
 displacements (vx,vy,vz) for set NALL and time  0.3000000E+01

         1  0.000000E+00  0.000000E+00  0.000000E+00
         2  0.000000E+00  0.000000E+00  0.000000E+00
         3  0.000000E+00  0.000000E+00  0.000000E+00
         4  0.000000E+00  0.000000E+00  0.000000E+00
         5  1.635393E-04  2.553590E-02  8.672369E-03
         6 -1.635393E-04  2.553590E-02  8.672369E-03
         7 -5.049939E-05  2.530342E-02  2.580326E-03
         8  5.049939E-05  2.530342E-02  2.580326E-03
         9  0.000000E+00  0.000000E+00  0.000000E+00
        10  0.000000E+00  0.000000E+00  0.000000E+00
        11  0.000000E+00  0.000000E+00  0.000000E+00
        12  0.000000E+00  0.000000E+00  0.000000E+00
        13  0.000000E+00  0.000000E+00  0.000000E+00
        14  0.000000E+00  0.000000E+00  0.000000E+00
        15  0.000000E+00  0.000000E+00  0.000000E+00
        16  0.000000E+00  0.000000E+00  0.000000E+00
        17  0.000000E+00  0.000000E+00  0.000000E+00
        18  0.000000E+00  0.000000E+00  0.000000E+00
        19  0.000000E+00  0.000000E+00  0.000000E+00
        20  0.000000E+00  0.000000E+00  0.000000E+00
        21  8.173286E-05  2.555435E-02  8.669620E-03
        22 -1.927386E-16  2.556158E-02  8.669362E-03
        23 -8.173286E-05  2.555435E-02  8.669620E-03
        24 -1.373358E-04  2.547155E-02  7.171454E-03
        25 -1.070453E-04  2.541828E-02  5.626470E-03
        26 -7.673424E-05  2.535505E-02  4.081452E-03
        27 -2.528760E-05  2.532191E-02  2.582859E-03
        28  8.029997E-17  2.532914E-02  2.583037E-03
        29  2.528760E-05  2.532191E-02  2.582859E-03
        30  7.673424E-05  2.535505E-02  4.081452E-03
        31  1.070453E-04  2.541828E-02  5.626470E-03
        32  1.373358E-04  2.547155E-02  7.171454E-03
        33 -1.883501E-04  2.306186E-04  5.501732E-04
        34 -1.431846E-04  5.038707E-04  1.104697E-03
        35 -1.723916E-04  1.065351E-03  1.676099E-03
        36 -1.629390E-04  1.792828E-03  2.235042E-03
        37 -1.673724E-04  2.744181E-03  2.792100E-03
        38 -1.642561E-04  3.881056E-03  3.343806E-03
        39 -1.647496E-04  5.219344E-03  3.891625E-03
        40 -1.631825E-04  6.744312E-03  4.435636E-03
        41 -1.629325E-04  8.460576E-03  4.976381E-03
        42 -1.617919E-04  1.035994E-02  5.513823E-03
        43 -1.615293E-04  1.244520E-02  6.048015E-03
        44 -1.608687E-04  1.470681E-02  6.579245E-03
        45 -1.616840E-04  1.715451E-02  7.112766E-03
        46 -1.599767E-04  1.977706E-02  7.642348E-03
        47 -1.580650E-04  2.258955E-02  8.160177E-03
        48  1.580650E-04  2.258955E-02  8.160177E-03
        49  1.599767E-04  1.977706E-02  7.642348E-03
        50  1.616840E-04  1.715451E-02  7.112766E-03
        51  1.608687E-04  1.470681E-02  6.579245E-03
        52  1.615293E-04  1.244520E-02  6.048015E-03
        53  1.617919E-04  1.035994E-02  5.513823E-03
        54  1.629325E-04  8.460576E-03  4.976381E-03
        55  1.631825E-04  6.744312E-03  4.435636E-03
        56  1.647496E-04  5.219344E-03  3.891625E-03
        57  1.642561E-04  3.881056E-03  3.343806E-03
        58  1.673724E-04  2.744181E-03  2.792100E-03
        59  1.629390E-04  1.792828E-03  2.235042E-03
        60  1.723916E-04  1.065351E-03  1.676099E-03
        61  1.431846E-04  5.038707E-04  1.104697E-03
        62  1.883501E-04  2.306186E-04  5.501732E-04
        63 -4.913637E-05 -7.012111E-06  1.385639E-04
        64 -3.502392E-05  3.252650E-04  2.644734E-04
        65 -4.608903E-05  8.460357E-04  4.135154E-04
        66 -4.411534E-05  1.584321E-03  5.606367E-04
        67 -4.758142E-05  2.527044E-03  7.182408E-04
        68 -4.821190E-05  3.665507E-03  8.762734E-04
        69 -4.963083E-05  5.000863E-03  1.038319E-03
        70 -5.043372E-05  6.525439E-03  1.202551E-03
        71 -5.119855E-05  8.239916E-03  1.369280E-03
        72 -5.214123E-05  1.013808E-02  1.537743E-03
        73 -5.255272E-05  1.222168E-02  1.708045E-03
        74 -5.314768E-05  1.448173E-02  1.879740E-03
        75 -5.237863E-05  1.692760E-02  2.047433E-03
        76 -5.406184E-05  1.954829E-02  2.217287E-03
        77 -5.597669E-05  2.235883E-02  2.396799E-03
        78  4.913637E-05 -7.012111E-06  1.385639E-04
        79  3.502392E-05  3.252650E-04  2.644734E-04
        80  4.608903E-05  8.460357E-04  4.135154E-04
        81  4.411534E-05  1.584321E-03  5.606367E-04
        82  4.758142E-05  2.527044E-03  7.182408E-04
        83  4.821190E-05  3.665507E-03  8.762734E-04
        84  4.963083E-05  5.000863E-03  1.038319E-03
        85  5.043372E-05  6.525439E-03  1.202551E-03
        86  5.119855E-05  8.239916E-03  1.369280E-03
        87  5.214123E-05  1.013808E-02  1.537743E-03
        88  5.255272E-05  1.222168E-02  1.708045E-03
        89  5.314768E-05  1.448173E-02  1.879740E-03
        90  5.237863E-05  1.692760E-02  2.047433E-03
        91  5.406184E-05  1.954829E-02  2.217287E-03
        92  5.597669E-05  2.235883E-02  2.396799E-03
        93  0.000000E+00  0.000000E+00  0.000000E+00
        94  0.000000E+00  0.000000E+00  0.000000E+00
        95  0.000000E+00  0.000000E+00  0.000000E+00
        96  0.000000E+00  0.000000E+00  0.000000E+00
        97  0.000000E+00  0.000000E+00  0.000000E+00
        98 -1.239813E-16  2.549802E-02  7.169178E-03
        99  5.352075E-05  2.543943E-02  5.626330E-03
       100 -4.797494E-17  2.544526E-02  5.626293E-03
       101 -5.352075E-05  2.543943E-02  5.626330E-03
       102  1.602943E-17  2.538154E-02  4.083399E-03
       103 -9.606194E-18  2.606842E-04  5.265023E-04
       104  7.167488E-05  5.314137E-04  1.109435E-03
       105 -2.183533E-17  5.397627E-04  1.117472E-03
       106 -7.167488E-05  5.314137E-04  1.109435E-03
       107 -3.657274E-17  1.093634E-03  1.674151E-03
       108  8.127075E-05  1.817253E-03  2.236953E-03
       109 -5.243077E-17  1.827395E-03  2.238107E-03
       110 -8.127075E-05  1.817253E-03  2.236953E-03
       111 -7.110346E-17  2.772747E-03  2.791666E-03
       112  8.215087E-05  3.903958E-03  3.344170E-03
       113 -8.885753E-17  3.912027E-03  3.344503E-03
       114 -8.215087E-05  3.903958E-03  3.344170E-03
       115 -1.101781E-16  5.247615E-03  3.891683E-03
       116  8.157514E-05  6.765835E-03  4.435839E-03
       117 -1.291807E-16  6.773252E-03  4.435864E-03
       118 -8.157514E-05  6.765835E-03  4.435839E-03
       119 -1.526585E-16  8.488301E-03  4.976399E-03
       120  8.090097E-05  1.038065E-02  5.513937E-03
       121 -1.711407E-16  1.038768E-02  5.513861E-03
       122 -8.090097E-05  1.038065E-02  5.513937E-03
       123 -1.889653E-16  1.247232E-02  6.048032E-03
       124  8.042047E-05  1.472725E-02  6.579056E-03
       125 -1.990670E-16  1.473397E-02  6.579145E-03
       126 -8.042047E-05  1.472725E-02  6.579056E-03
       127 -2.054304E-16  1.718178E-02  7.112640E-03
       128  8.001317E-05  1.979684E-02  7.642898E-03
       129 -2.037604E-16  1.980334E-02  7.642687E-03
       130 -8.001317E-05  1.979684E-02  7.642898E-03
       131 -2.018262E-16  2.261494E-02  8.159204E-03
       132 -1.188352E-04  6.869077E-05  3.270841E-04
       133 -1.183252E-04  4.410366E-04  8.973871E-04
       134 -9.338014E-05  3.979407E-04  6.923758E-04
       135 -6.375948E-05  3.510526E-04  4.774754E-04
       136 -1.073071E-04  9.196282E-04  1.043348E-03
       137 -1.346298E-04  1.721771E-03  1.816603E-03
       138 -1.063722E-04  1.665164E-03  1.399972E-03
       139 -7.534732E-05  1.617922E-03  9.814707E-04
       140 -1.066839E-04  2.603759E-03  1.754736E-03
       141 -1.357983E-04  3.806545E-03  2.726597E-03
       142 -1.073243E-04  3.746864E-03  2.110500E-03
       143 -7.772599E-05  3.698696E-03  1.493849E-03
       144 -1.069053E-04  5.080454E-03  2.464987E-03
       145 -1.351526E-04  6.669182E-03  3.627116E-03
       146 -1.071512E-04  6.608158E-03  2.819331E-03
       147 -7.881085E-05  6.559773E-03  2.011383E-03
       148 -1.069730E-04  8.321799E-03  3.172891E-03
       149 -1.344547E-04  1.028469E-02  4.519224E-03
       150 -1.070610E-04  1.022311E-02  3.525921E-03
       151 -7.956736E-05  1.017375E-02  2.532524E-03
       152 -1.070028E-04  1.230470E-02  3.878147E-03
       153 -1.339242E-04  1.463202E-02  5.405712E-03
       154 -1.070266E-04  1.457091E-02  4.229615E-03
       155 -8.010858E-05  1.451947E-02  3.053465E-03
       156 -1.070108E-04  1.701334E-02  4.580240E-03
       157 -1.333170E-04  1.970450E-02  6.280537E-03
       158 -1.070148E-04  1.964528E-02  4.929908E-03
       159 -8.071442E-05  1.959018E-02  3.579254E-03
       160 -1.070192E-04  2.243352E-02  5.278749E-03
       161  8.178550E-18  2.284977E-05  1.276361E-04
       162 -1.809739E-05  3.488889E-04  2.653553E-04
       163  1.467017E-17  3.525493E-04  2.671777E-04
       164  1.809739E-05  3.488889E-04  2.653553E-04
       165  1.936321E-17  8.781333E-04  4.123752E-04
       166 -2.184831E-05  1.605794E-03  5.609667E-04
       167  2.288341E-17  1.613159E-03  5.616399E-04
       168  2.184831E-05  1.605794E-03  5.609667E-04
       169  2.339086E-17  2.557156E-03  7.175491E-04
       170 -2.415342E-05  3.687324E-03  8.760647E-04
       171  2.339201E-17  3.694259E-03  8.762164E-04
       172  2.415342E-05  3.687324E-03  8.760647E-04
       173  2.422897E-17  5.029664E-03  1.037957E-03
       174 -2.520037E-05  6.546588E-03  1.202386E-03
       175  2.553096E-17  6.553657E-03  1.202439E-03
       176  2.520037E-05  6.546588E-03  1.202386E-03
       177  2.187853E-17  8.267789E-03  1.368975E-03
       178 -2.606907E-05  1.015867E-02  1.537490E-03
       179  2.643202E-17  1.016559E-02  1.537557E-03
       180  2.606907E-05  1.015867E-02  1.537490E-03
       181  3.090593E-17  1.224884E-02  1.707778E-03
       182 -2.658201E-05  1.450212E-02  1.879753E-03
       183  3.888823E-17  1.450882E-02  1.879613E-03
       184  2.658201E-05  1.450212E-02  1.879753E-03
       185  4.676655E-17  1.695489E-02  2.047277E-03
       186 -2.700248E-05  1.956805E-02  2.216525E-03
       187  5.076512E-17  1.957455E-02  2.216669E-03
       188  2.700248E-05  1.956805E-02  2.216525E-03
       189  6.552493E-17  2.238425E-02  2.397472E-03
       190  1.188352E-04  6.869077E-05  3.270841E-04
       191  6.375948E-05  3.510526E-04  4.774754E-04
       192  9.338014E-05  3.979407E-04  6.923758E-04
       193  1.183252E-04  4.410366E-04  8.973871E-04
       194  1.073071E-04  9.196282E-04  1.043348E-03
       195  7.534732E-05  1.617922E-03  9.814707E-04
       196  1.063722E-04  1.665164E-03  1.399972E-03
       197  1.346298E-04  1.721771E-03  1.816603E-03
       198  1.066839E-04  2.603759E-03  1.754736E-03
       199  7.772599E-05  3.698696E-03  1.493849E-03
       200  1.073243E-04  3.746864E-03  2.110500E-03
       201  1.357983E-04  3.806545E-03  2.726597E-03
       202  1.069053E-04  5.080454E-03  2.464987E-03
       203  7.881085E-05  6.559773E-03  2.011383E-03
       204  1.071512E-04  6.608158E-03  2.819331E-03
       205  1.351526E-04  6.669182E-03  3.627116E-03
       206  1.069730E-04  8.321799E-03  3.172891E-03
       207  7.956736E-05  1.017375E-02  2.532524E-03
       208  1.070610E-04  1.022311E-02  3.525921E-03
       209  1.344547E-04  1.028469E-02  4.519224E-03
       210  1.070028E-04  1.230470E-02  3.878147E-03
       211  8.010858E-05  1.451947E-02  3.053465E-03
       212  1.070266E-04  1.457091E-02  4.229615E-03
       213  1.339242E-04  1.463202E-02  5.405712E-03
       214  1.070108E-04  1.701334E-02  4.580240E-03
       215  8.071442E-05  1.959018E-02  3.579254E-03
       216  1.070148E-04  1.964528E-02  4.929908E-03
       217  1.333170E-04  1.970450E-02  6.280537E-03
       218  1.070192E-04  2.243352E-02  5.278749E-03
       219 -1.057373E-18  9.867057E-05  3.088838E-04
       220 -1.287147E-17  4.730265E-04  9.075169E-04
       221  4.674627E-05  4.225885E-04  6.958182E-04
       222 -3.889232E-18  4.271696E-04  7.011916E-04
       223 -4.674627E-05  4.225885E-04  6.958182E-04
       224  5.313360E-18  3.792973E-04  4.840886E-04
       225 -8.819267E-18  9.508201E-04  1.041881E-03
       226 -3.412414E-17  1.754021E-03  1.818942E-03
       227  5.303920E-05  1.687037E-03  1.400603E-03
       228 -1.514315E-17  1.694845E-03  1.401126E-03
       229 -5.303920E-05  1.687037E-03  1.400603E-03
       230  3.632642E-18  1.647193E-03  9.822211E-04
       231 -2.358545E-17  2.633838E-03  1.754731E-03
       232 -6.066619E-17  3.836404E-03  2.726905E-03
       233  5.367542E-05  3.768732E-03  2.110289E-03
       234 -3.296764E-17  3.775692E-03  2.110203E-03
       235 -5.367542E-05  3.768732E-03  2.110289E-03
       236 -4.419189E-18  3.727488E-03  1.493605E-03
       237 -4.238717E-17  5.109332E-03  2.465022E-03
       238 -9.159600E-17  6.697704E-03  3.627206E-03
       239  5.356778E-05  6.629225E-03  2.819208E-03
       240 -5.274196E-17  6.636230E-03  2.819108E-03
       241 -5.356778E-05  6.629225E-03  2.819208E-03
       242 -1.430646E-17  6.587916E-03  2.011122E-03
       243 -6.501550E-17  8.349766E-03  3.172828E-03
       244 -1.216355E-16  1.031226E-02  4.519260E-03
       245  5.353147E-05  1.024369E-02  3.525808E-03
       246 -7.602162E-17  1.025053E-02  3.525754E-03
       247 -5.353147E-05  1.024369E-02  3.525808E-03
       248 -2.345719E-17  1.020122E-02  2.532251E-03
       249 -8.029890E-17  1.233198E-02  3.878043E-03
       250 -1.381383E-16  1.465908E-02  5.405532E-03
       251  5.351215E-05  1.459122E-02  4.229512E-03
       252 -8.116547E-17  1.459788E-02  4.229472E-03
       253 -5.351215E-05  1.459122E-02  4.229512E-03
       254 -2.192800E-17  1.454649E-02  3.053387E-03
       255 -8.064204E-17  1.704049E-02  4.580106E-03
       256 -1.392816E-16  1.973059E-02  6.280909E-03
       257  5.350733E-05  1.966466E-02  4.929801E-03
       258 -7.691581E-17  1.967113E-02  4.929763E-03
       259 -5.350733E-05  1.966466E-02  4.929801E-03
       260 -1.110888E-17  1.961624E-02  3.578600E-03
       261 -6.596510E-17  2.246056E-02  5.278590E-03

 stresses (elem, integ.pnt.,sxx,syy,szz,sxy,sxz,syz) for set EALL and time  0.3000000E+01

         1   1  3.968582E+01  3.964766E+01  2.323773E+02 -1.805859E+00  2.151771E+01  1.591527E+01
         1   2  3.589773E+01  3.598916E+01  2.235297E+02  4.083518E-01  3.957456E+00  1.924666E+01
         1   3  2.381809E+01  1.941706E+01  1.670013E+02 -1.731280E+00  1.628387E+01 -5.850096E-01
         1   4  2.065677E+01  1.647672E+01  1.594957E+02  4.550727E-01  2.798109E+00  2.828577E+00
         1   5 -1.508346E+01 -1.465185E+01  2.111385E+02 -2.141777E-01 -9.394440E+00 -7.326895E+00
         1   6 -1.041709E+01 -1.066235E+01  2.231482E+02  5.156741E-01 -3.127426E+00 -7.054294E+00
         1   7 -1.017625E+01 -1.084353E+01  1.678365E+02 -4.481046E-01 -7.140992E+00  1.036109E-01
         1   8 -6.042970E+00 -7.019173E+00  1.781403E+02  1.484858E-01 -2.545383E+00  2.209450E-01
         2   1  3.589773E+01  3.598916E+01  2.235297E+02 -4.083518E-01 -3.957456E+00  1.924666E+01
         2   2  3.968582E+01  3.964766E+01  2.323773E+02  1.805859E+00 -2.151771E+01  1.591527E+01
         2   3  2.065677E+01  1.647672E+01  1.594957E+02 -4.550727E-01 -2.798109E+00  2.828577E+00
         2   4  2.381809E+01  1.941706E+01  1.670013E+02  1.731280E+00 -1.628387E+01 -5.850096E-01
         2   5 -1.041709E+01 -1.066235E+01  2.231482E+02 -5.156741E-01  3.127426E+00 -7.054294E+00
         2   6 -1.508346E+01 -1.465185E+01  2.111385E+02  2.141777E-01  9.394440E+00 -7.326895E+00
         2   7 -6.042970E+00 -7.019173E+00  1.781403E+02 -1.484858E-01  2.545383E+00  2.209450E-01
         2   8 -1.017625E+01 -1.084353E+01  1.678365E+02  4.481046E-01  7.140992E+00  1.036109E-01
         3   1  2.306777E+01  2.714801E+01  1.329760E+02 -1.579715E+00  1.253786E+01 -5.604569E+00
         3   2  2.025716E+01  2.442355E+01  1.265642E+02  5.292004E-01  2.042667E+00 -2.020550E+00
         3   3  1.294526E+01  1.297158E+01  8.133321E+01 -1.513909E+00  7.497414E+00 -1.311947E+01
         3   4  1.068724E+01  1.089432E+01  7.652985E+01  5.607036E-01  1.058185E+00 -9.614295E+00
         3   5 -6.626245E+00 -5.697075E+00  1.317948E+02 -1.071776E+00 -5.624379E+00  4.765490E+00
         3   6 -3.247816E+00 -2.304457E+00  1.405455E+02 -8.091233E-02 -2.035363E+00  4.774360E+00
         3   7 -7.639133E+00 -8.091233E+00  7.091763E+01 -9.645156E-01 -4.031022E+00  6.006577E+00
         3   8 -6.093209E+00 -6.164166E+00  7.656973E+01 -1.067643E-01 -1.561704E+00  5.619375E+00
         4   1  2.025716E+01  2.442355E+01  1.265642E+02 -5.292004E-01 -2.042667E+00 -2.020550E+00
         4   2  2.306777E+01  2.714801E+01  1.329760E+02  1.579715E+00 -1.253786E+01 -5.604569E+00
         4   3  1.068724E+01  1.089432E+01  7.652985E+01 -5.607036E-01 -1.058185E+00 -9.614295E+00
         4   4  1.294526E+01  1.297158E+01  8.133321E+01  1.513909E+00 -7.497414E+00 -1.311947E+01
         4   5 -3.247816E+00 -2.304457E+00  1.405455E+02  8.091233E-02  2.035363E+00  4.774360E+00
         4   6 -6.626245E+00 -5.697075E+00  1.317948E+02  1.071776E+00  5.624379E+00  4.765490E+00
         4   7 -6.093209E+00 -6.164166E+00  7.656973E+01  1.067643E-01  1.561704E+00  5.619375E+00
         4   8 -7.639133E+00 -8.091233E+00  7.091763E+01  9.645156E-01  4.031022E+00  6.006577E+00
         5   1  6.744495E+00  5.646287E+00  2.239843E+02  8.265302E-01  3.798926E+00  4.582113E+00
         5   2  4.395952E+00  3.052952E+00  2.188714E+02 -4.868244E-01  1.960470E+00  3.786414E+00
         5   3  5.595367E+00  7.480396E+00  1.703612E+02  8.310338E-01  2.521701E+00  1.507162E+00
         5   4  3.937013E+00  5.934155E+00  1.664717E+02 -6.074814E-01  1.405652E+00  1.506703E+00
         5   5 -2.742586E+00 -3.081099E+00  2.163229E+02 -2.812273E-01 -1.576892E+00 -1.089397E+00
         5   6 -1.461917E+00 -1.905785E+00  2.185757E+02 -1.121506E-01 -5.697312E-01 -5.568141E-01
         5   7 -1.686072E+00 -2.176666E+00  1.677686E+02 -2.229999E-01 -8.404724E-01  1.490220E+00
         5   8 -6.819488E-01 -1.231069E+00  1.694576E+02 -6.221163E-02 -3.445108E-01  1.511867E+00
         6   1  4.395952E+00  3.052952E+00  2.188714E+02  4.868244E-01 -1.960470E+00  3.786414E+00
         6   2  6.744495E+00  5.646287E+00  2.239843E+02 -8.265302E-01 -3.798926E+00  4.582113E+00
         6   3  3.937013E+00  5.934155E+00  1.664717E+02  6.074814E-01 -1.405652E+00  1.506703E+00
         6   4  5.595367E+00  7.480396E+00  1.703612E+02 -8.310338E-01 -2.521701E+00  1.507162E+00
         6   5 -1.461917E+00 -1.905785E+00  2.185757E+02  1.121506E-01  5.697312E-01 -5.568141E-01
         6   6 -2.742586E+00 -3.081099E+00  2.163229E+02  2.812273E-01  1.576892E+00 -1.089397E+00
         6   7 -6.819488E-01 -1.231069E+00  1.694576E+02  6.221163E-02  3.445108E-01  1.511867E+00
         6   8 -1.686072E+00 -2.176666E+00  1.677686E+02  2.229999E-01  8.404724E-01  1.490220E+00
         7   1  1.753731E+00 -3.917901E-01  1.295522E+02  7.523355E-01  2.049363E+00 -1.284552E+00
         7   2  4.041047E-02 -1.993845E+00  1.260773E+02 -6.086785E-01  1.183505E+00 -1.120588E+00
         7   3  4.487544E+00  5.583148E+00  8.353874E+01  9.201709E-01  1.644828E+00 -1.005157E+00
         7   4  2.733668E+00  4.295006E+00  8.112703E+01 -5.662987E-01  7.938030E-01 -9.282489E-01
         7   5 -5.175292E-01  5.613132E-02  1.322752E+02 -5.798252E-02 -5.640229E-01  2.184822E+00
         7   6  2.041198E-01  7.296917E-01  1.334260E+02  9.701432E-03 -2.448732E-01  2.044829E+00
         7   7 -1.178846E+00 -8.544882E-01  8.064269E+01 -7.300893E-03 -5.803809E-01  8.592641E-01
         7   8 -6.375806E-01 -3.131021E-01  8.155664E+01  5.292130E-02 -1.816629E-01  6.397074E-01
         8   1  4.041047E-02 -1.993845E+00  1.260773E+02  6.086785E-01 -1.183505E+00 -1.120588E+00
         8   2  1.753731E+00 -3.917901E-01  1.295522E+02 -7.523355E-01 -2.049363E+00 -1.284552E+00
         8   3  2.733668E+00  4.295006E+00  8.112703E+01  5.662987E-01 -7.938030E-01 -9.282489E-01
         8   4  4.487544E+00  5.583148E+00  8.353874E+01 -9.201709E-01 -1.644828E+00 -1.005157E+00
         8   5  2.041198E-01  7.296917E-01  1.334260E+02 -9.701432E-03  2.448732E-01  2.044829E+00
         8   6 -5.175292E-01  5.613132E-02  1.322752E+02  5.798252E-02  5.640229E-01  2.184822E+00
         8   7 -6.375806E-01 -3.131021E-01  8.155664E+01 -5.292130E-02  1.816629E-01  6.397074E-01
         8   8 -1.178846E+00 -8.544882E-01  8.064269E+01  7.300893E-03  5.803809E-01  8.592641E-01
         9   1  1.308180E+00  1.966010E+00  2.176570E+02  1.139726E-01  8.024750E-01  1.737156E+00
         9   2  1.108421E+00  1.411511E+00  2.166166E+02  2.851615E-01  2.331198E-01  1.252014E+00
         9   3  4.772157E-01  8.711285E-01  1.678698E+02  1.852974E-02  3.492546E-01  1.096341E+00
         9   4  3.740895E-01  3.698471E-01  1.672452E+02  2.158759E-01  1.531436E-01  9.110223E-01
         9   5 -5.047207E-01 -7.397156E-01  2.149428E+02 -1.380815E-01 -3.398454E-01  3.455147E-01
         9   6 -2.074282E-01 -3.618461E-01  2.154098E+02 -8.183467E-02 -1.420174E-01  5.734871E-01
         9   7 -2.457647E-01 -5.680174E-01  1.674257E+02 -7.813373E-02 -4.152878E-02  1.376332E+00
         9   8 -8.852395E-02 -3.230728E-01  1.675703E+02 -2.461906E-02 -2.354345E-02  1.307179E+00
        10   1  1.108421E+00  1.411511E+00  2.166166E+02 -2.851615E-01 -2.331198E-01  1.252014E+00
        10   2  1.308180E+00  1.966010E+00  2.176570E+02 -1.139726E-01 -8.024750E-01  1.737156E+00
        10   3  3.740895E-01  3.698471E-01  1.672452E+02 -2.158759E-01 -1.531436E-01  9.110223E-01
        10   4  4.772157E-01  8.711285E-01  1.678698E+02 -1.852974E-02 -3.492546E-01  1.096341E+00
        10   5 -2.074282E-01 -3.618461E-01  2.154098E+02  8.183467E-02  1.420174E-01  5.734871E-01
        10   6 -5.047207E-01 -7.397156E-01  2.149428E+02  1.380815E-01  3.398454E-01  3.455147E-01
        10   7 -8.852395E-02 -3.230728E-01  1.675703E+02  2.461906E-02  2.354345E-02  1.307179E+00
        10   8 -2.457647E-01 -5.680174E-01  1.674257E+02  7.813373E-02  4.152878E-02  1.376332E+00
        11   1  2.007431E-01  4.226410E-01  1.319644E+02 -1.941732E-01  1.825578E-01  6.434693E-01
        11   2  2.926987E-01  2.712153E-01  1.316366E+02  1.199003E-01  9.317642E-02  6.000511E-01
        11   3  1.145631E-01 -5.492972E-01  8.372464E+01 -2.664490E-01  3.404797E-01  3.496412E-01
        11   4  2.115282E-01 -7.395773E-01  8.329554E+01  7.277134E-02  1.550427E-01  4.752441E-01
        11   5  1.199718E-01  3.456447E-01  1.326646E+02  4.224981E-02  3.956629E-03  1.449038E+00
        11   6  1.895414E-01  4.066119E-01  1.327242E+02  2.717098E-02 -1.085823E-02  1.259225E+00
        11   7 -1.291106E-01  9.902901E-02  8.451863E+01  5.593736E-02 -7.286251E-02  4.550147E-01
        11   8  9.924368E-04  2.291526E-01  8.476247E+01  3.868607E-02 -1.336530E-02  3.082908E-01
        12   1  2.926987E-01  2.712153E-01  1.316366E+02 -1.199003E-01 -9.317642E-02  6.000511E-01
        12   2  2.007431E-01  4.226410E-01  1.319644E+02  1.941732E-01 -1.825578E-01  6.434693E-01
        12   3  2.115282E-01 -7.395773E-01  8.329554E+01 -7.277134E-02 -1.550427E-01  4.752441E-01
        12   4  1.145631E-01 -5.492972E-01  8.372464E+01  2.664490E-01 -3.404797E-01  3.496412E-01
        12   5  1.895414E-01  4.066119E-01  1.327242E+02 -2.717098E-02  1.085823E-02  1.259225E+00
        12   6  1.199718E-01  3.456447E-01  1.326646E+02 -4.224981E-02 -3.956629E-03  1.449038E+00
        12   7  9.924368E-04  2.291526E-01  8.476247E+01 -3.868607E-02  1.336530E-02  3.082908E-01
        12   8 -1.291106E-01  9.902901E-02  8.451863E+01 -5.593736E-02  7.286251E-02  4.550147E-01
        13   1  2.504823E-01  2.909747E-01  2.143640E+02  1.291293E-01  1.246631E-01  1.171906E+00
        13   2  7.153144E-02  3.147374E-02  2.141155E+02  2.469595E-02  6.247159E-02  9.414653E-01
        13   3  1.937961E-01  4.402211E-01  1.673147E+02  8.882492E-02 -1.385997E-02  1.044671E+00
        13   4  1.306052E-01  3.177874E-01  1.672941E+02 -2.443454E-02  2.003153E-02  9.357733E-01
        13   5 -1.196824E-01 -1.921585E-01  2.129487E+02 -4.950436E-02 -1.106476E-01  7.570109E-01
        13   6 -4.819827E-02 -7.868454E-02  2.130315E+02 -3.727082E-02 -4.472554E-02  8.207581E-01
        13   7 -3.144999E-02 -1.228469E-01  1.668671E+02 -2.046243E-02  9.136357E-03  1.247746E+00
        13   8 -1.267086E-02 -6.181022E-02  1.668432E+02 -8.160911E-03  7.224696E-03  1.174292E+00
        14   1  7.153144E-02  3.147374E-02  2.141155E+02 -2.469595E-02 -6.247159E-02  9.414653E-01
        14   2  2.504823E-01  2.909747E-01  2.143640E+02 -1.291293E-01 -1.246631E-01  1.171906E+00
        14   3  1.306052E-01  3.177874E-01  1.672941E+02  2.443454E-02 -2.003153E-02  9.357733E-01
        14   4  1.937961E-01  4.402211E-01  1.673147E+02 -8.882492E-02  1.385997E-02  1.044671E+00
        14   5 -4.819827E-02 -7.868454E-02  2.130315E+02  3.727082E-02  4.472554E-02  8.207581E-01
        14   6 -1.196824E-01 -1.921585E-01  2.129487E+02  4.950436E-02  1.106476E-01  7.570109E-01
        14   7 -1.267086E-02 -6.181022E-02  1.668432E+02  8.160911E-03 -7.224696E-03  1.174292E+00
        14   8 -3.144999E-02 -1.228469E-01  1.668671E+02  2.046243E-02 -9.136357E-03  1.247746E+00
        15   1 -1.616543E-01 -3.717233E-01  1.325581E+02  2.364918E-03 -4.279115E-02  8.432233E-01
        15   2 -1.839258E-01 -3.918119E-01  1.325981E+02 -5.853250E-02  3.167515E-03  8.222161E-01
        15   3  1.367506E-01  9.410818E-02  8.594398E+01  8.440184E-03  5.826425E-02  6.512565E-01
        15   4  1.727693E-02 -2.381310E-03  8.582995E+01 -6.165037E-02  4.872977E-02  6.605245E-01
        15   5  4.580448E-02  8.130277E-02  1.331557E+02  2.970609E-02  3.258436E-02  1.170909E+00
        15   6  2.960699E-02  6.374863E-02  1.331005E+02  1.253935E-02  1.033037E-02  1.052561E+00
        15   7 -1.154602E-02  5.767655E-02  8.700919E+01  2.977370E-02  2.043950E-02  4.585851E-01
        15   8  2.043753E-02  8.969285E-02  8.706672E+01  1.293274E-02  1.718319E-02  3.907470E-01
        16   1 -1.839258E-01 -3.918119E-01  1.325981E+02  5.853250E-02 -3.167515E-03  8.222161E-01
        16   2 -1.616543E-01 -3.717233E-01  1.325581E+02 -2.364918E-03  4.279115E-02  8.432233E-01
        16   3  1.727693E-02 -2.381310E-03  8.582995E+01  6.165037E-02 -4.872977E-02  6.605245E-01
        16   4  1.367506E-01  9.410818E-02  8.594398E+01 -8.440184E-03 -5.826425E-02  6.512565E-01
        16   5  2.960699E-02  6.374863E-02  1.331005E+02 -1.253935E-02 -1.033037E-02  1.052561E+00
        16   6  4.580448E-02  8.130277E-02  1.331557E+02 -2.970609E-02 -3.258436E-02  1.170909E+00
        16   7  2.043753E-02  8.969285E-02  8.706672E+01 -1.293274E-02 -1.718319E-02  3.907470E-01
        16   8 -1.154602E-02  5.767655E-02  8.700919E+01 -2.977370E-02 -2.043950E-02  4.585851E-01
        17   1  5.012139E-02  1.116404E-01  2.122415E+02  2.257738E-02  4.864729E-02  1.078255E+00
        17   2  3.306010E-02  4.747702E-02  2.121836E+02  3.244164E-02 -4.112991E-03  9.774064E-01
        17   3 -1.851981E-02  1.982986E-02  1.665958E+02  4.933741E-03  2.136860E-03  1.053001E+00
        17   4 -1.864098E-02 -3.282373E-02  1.666043E+02  1.777370E-02 -3.831235E-03  9.800887E-01
        17   5  3.427388E-02  1.262959E-01  2.112575E+02 -2.134404E-02 -5.587588E-02  7.759315E-01
        17   6  5.148811E-02  1.682818E-01  2.112770E+02  3.819736E-05 -4.124635E-02  7.842565E-01
        17   7  1.133806E-02  4.370058E-02  1.663776E+02 -1.713117E-02  6.416021E-03  1.317076E+00
        17   8  1.502802E-02  6.718958E-02  1.663651E+02  4.605877E-03  1.796259E-03  1.245807E+00
        18   1  3.306010E-02  4.747702E-02  2.121836E+02 -3.244164E-02  4.112991E-03  9.774064E-01
        18   2  5.012139E-02  1.116404E-01  2.122415E+02 -2.257738E-02 -4.864729E-02  1.078255E+00
        18   3 -1.864098E-02 -3.282373E-02  1.666043E+02 -1.777370E-02  3.831235E-03  9.800887E-01
        18   4 -1.851981E-02  1.982986E-02  1.665958E+02 -4.933741E-03 -2.136860E-03  1.053001E+00
        18   5  5.148811E-02  1.682818E-01  2.112770E+02 -3.819736E-05  4.124635E-02  7.842565E-01
        18   6  3.427388E-02  1.262959E-01  2.112575E+02  2.134404E-02  5.587588E-02  7.759315E-01
        18   7  1.502802E-02  6.718958E-02  1.663651E+02 -4.605877E-03 -1.796259E-03  1.245807E+00
        18   8  1.133806E-02  4.370058E-02  1.663776E+02  1.713117E-02 -6.416021E-03  1.317076E+00
        19   1  5.441020E-04  1.287348E-02  1.333417E+02 -2.620636E-02 -2.482719E-02  9.261835E-01
        19   2  3.069818E-02  2.973586E-02  1.333793E+02  3.435421E-03 -1.314708E-02  8.842160E-01
        19   3  4.532083E-03 -5.652677E-02  8.785554E+01 -3.095470E-02  1.285848E-02  5.947098E-01
        19   4  1.414244E-02 -6.567094E-02  8.782313E+01  1.477876E-03  1.808152E-02  5.780597E-01
        19   5  8.818305E-03 -4.270402E-02  1.336127E+02 -6.522565E-04  1.125827E-02  1.201401E+00
        19   6 -2.649218E-03 -6.329741E-02  1.335866E+02  1.137644E-02  5.261528E-03  1.113565E+00
        19   7 -5.841397E-02 -1.531970E-01  8.876313E+01  4.437851E-03  3.022918E-02  3.343782E-01
        19   8 -4.328039E-02 -1.511772E-01  8.878887E+01  1.692058E-02  3.153813E-02  2.997786E-01
        20   1  3.069818E-02  2.973586E-02  1.333793E+02 -3.435421E-03  1.314708E-02  8.842160E-01
        20   2  5.441020E-04  1.287348E-02  1.333417E+02  2.620636E-02  2.482719E-02  9.261835E-01
        20   3  1.414244E-02 -6.567094E-02  8.782313E+01 -1.477876E-03 -1.808152E-02  5.780597E-01
        20   4  4.532083E-03 -5.652677E-02  8.785554E+01  3.095470E-02 -1.285848E-02  5.947098E-01
        20   5 -2.649218E-03 -6.329741E-02  1.335866E+02 -1.137644E-02 -5.261528E-03  1.113565E+00
        20   6  8.818305E-03 -4.270402E-02  1.336127E+02  6.522565E-04 -1.125827E-02  1.201401E+00
        20   7 -4.328039E-02 -1.511772E-01  8.878887E+01 -1.692058E-02 -3.153813E-02  2.997786E-01
        20   8 -5.841397E-02 -1.531970E-01  8.876313E+01 -4.437851E-03 -3.022918E-02  3.343782E-01
        21   1 -4.952383E-02 -2.772609E-01  2.106660E+02  1.546782E-02  1.987287E-02  1.229108E+00