
 displacements (vx,vy,vz) for set NALL and time  0.1000000E+01

         1  0.000000E+00  0.000000E+00  0.000000E+00
         2  0.000000E+00  0.000000E+00  0.000000E+00
         3  0.000000E+00  0.000000E+00  0.000000E+00
         4  0.000000E+00  0.000000E+00  0.000000E+00
         5 -5.535539E-04 -2.443555E-03  7.991454E-03
         6  5.535539E-04 -2.443555E-03  7.991454E-03
         7  0.000000E+00  0.000000E+00  0.000000E+00
         8  0.000000E+00  0.000000E+00  0.000000E+00
         9  0.000000E+00  0.000000E+00  0.000000E+00
        10  0.000000E+00  0.000000E+00  0.000000E+00
        11  0.000000E+00  0.000000E+00  0.000000E+00
        12  0.000000E+00  0.000000E+00  0.000000E+00
        13  0.000000E+00  0.000000E+00  0.000000E+00
        14  0.000000E+00  0.000000E+00  0.000000E+00
        15  0.000000E+00  0.000000E+00  0.000000E+00
        16  0.000000E+00  0.000000E+00  0.000000E+00
        17  0.000000E+00  0.000000E+00  0.000000E+00
        18  0.000000E+00  0.000000E+00  0.000000E+00
        19  0.000000E+00  0.000000E+00  0.000000E+00
        20  0.000000E+00  0.000000E+00  0.000000E+00
        21 -2.618041E-04 -2.475273E-03  8.005970E-03
        22 -2.083193E-17 -2.446281E-03  7.970898E-03
        23  2.618041E-04 -2.475273E-03  8.005970E-03
        24  5.188374E-04 -2.100750E-03  6.644960E-03
        25  5.100739E-04 -1.758992E-03  5.320922E-03
        26  4.190496E-04 -9.868435E-04  3.362519E-03
        27  0.000000E+00  0.000000E+00  0.000000E+00
        28  0.000000E+00  0.000000E+00  0.000000E+00
        29  0.000000E+00  0.000000E+00  0.000000E+00
        30 -4.190496E-04 -9.868435E-04  3.362519E-03
        31 -5.100739E-04 -1.758992E-03  5.320922E-03
        32 -5.188374E-04 -2.100750E-03  6.644960E-03
        33  8.982815E-04 -1.064384E-03 -4.047287E-05
        34  6.472646E-04 -1.515016E-03  1.680576E-06
        35  7.734422E-04 -2.653231E-03  2.883848E-06
        36  7.041131E-04 -3.803968E-03  1.401766E-04
        37  7.069196E-04 -5.169562E-03  3.398039E-04
        38  6.696026E-04 -6.520126E-03  6.410831E-04
        39  6.506214E-04 -7.841725E-03  1.029892E-03
        40  6.190409E-04 -8.999534E-03  1.510730E-03
        41  5.956588E-04 -9.937385E-03  2.082155E-03
        42  5.643361E-04 -1.053295E-02  2.746216E-03
        43  5.450120E-04 -1.072782E-02  3.494002E-03
        44  5.116913E-04 -1.038550E-02  4.335334E-03
        45  4.893988E-04 -9.514930E-03  5.242872E-03
        46  4.341329E-04 -7.998591E-03  6.261116E-03
        47  5.336776E-04 -5.393757E-03  7.323164E-03
        48 -5.336776E-04 -5.393757E-03  7.323164E-03
        49 -4.341329E-04 -7.998591E-03  6.261116E-03
        50 -4.893988E-04 -9.514930E-03  5.242872E-03
        51 -5.116913E-04 -1.038550E-02  4.335334E-03
        52 -5.450120E-04 -1.072782E-02  3.494002E-03
        53 -5.643361E-04 -1.053295E-02  2.746216E-03
        54 -5.956588E-04 -9.937385E-03  2.082155E-03
        55 -6.190409E-04 -8.999534E-03  1.510730E-03
        56 -6.506214E-04 -7.841725E-03  1.029892E-03
        57 -6.696026E-04 -6.520126E-03  6.410831E-04
        58 -7.069196E-04 -5.169562E-03  3.398039E-04
        59 -7.041131E-04 -3.803968E-03  1.401766E-04
        60 -7.734422E-04 -2.653231E-03  2.883848E-06
        61 -6.472646E-04 -1.515016E-03  1.680576E-06
        62 -8.982815E-04 -1.064384E-03 -4.047287E-05
        63  6.387471E-04  4.720825E-04  7.794716E-04
        64  5.055217E-04 -3.635463E-04  1.529851E-03
        65  6.404179E-04 -1.241578E-03  2.058012E-03
        66  6.352740E-04 -2.467329E-03  2.539406E-03
        67  6.840033E-04 -3.781607E-03  2.898220E-03
        68  7.049775E-04 -5.149441E-03  3.181934E-03
        69  7.370669E-04 -6.457802E-03  3.369238E-03
        70  7.604654E-04 -7.619793E-03  3.468016E-03
        71  7.905276E-04 -8.548666E-03  3.483598E-03
        72  8.190149E-04 -9.157149E-03  3.407237E-03
        73  8.446577E-04 -9.348161E-03  3.219575E-03
        74  8.395005E-04 -8.991202E-03  2.932723E-03
        75  9.028738E-04 -8.090923E-03  2.685890E-03
        76  8.543035E-04 -6.505931E-03  2.297957E-03
        77  1.084182E-03 -4.475422E-03  1.482602E-03
        78 -6.387471E-04  4.720825E-04  7.794716E-04
        79 -5.055217E-04 -3.635463E-04  1.529851E-03
        80 -6.404179E-04 -1.241578E-03  2.058012E-03
        81 -6.352740E-04 -2.467329E-03  2.539406E-03
        82 -6.840033E-04 -3.781607E-03  2.898220E-03
        83 -7.049775E-04 -5.149441E-03  3.181934E-03
        84 -7.370669E-04 -6.457802E-03  3.369238E-03
        85 -7.604654E-04 -7.619793E-03  3.468016E-03
        86 -7.905276E-04 -8.548666E-03  3.483598E-03
        87 -8.190149E-04 -9.157149E-03  3.407237E-03
        88 -8.446577E-04 -9.348161E-03  3.219575E-03
        89 -8.395005E-04 -8.991202E-03  2.932723E-03
        90 -9.028738E-04 -8.090923E-03  2.685890E-03
        91 -8.543035E-04 -6.505931E-03  2.297957E-03
        92 -1.084182E-03 -4.475422E-03  1.482602E-03
        93  0.000000E+00  0.000000E+00  0.000000E+00
        94  0.000000E+00  0.000000E+00  0.000000E+00
        95  0.000000E+00  0.000000E+00  0.000000E+00
        96  0.000000E+00  0.000000E+00  0.000000E+00
        97  0.000000E+00  0.000000E+00  0.000000E+00
        98 -1.361047E-17 -2.074635E-03  6.605942E-03
        99 -2.650825E-04 -1.698969E-03  5.208722E-03
       100 -4.648821E-19 -1.690006E-03  5.227292E-03
       101  2.650825E-04 -1.698969E-03  5.208722E-03
       102  4.119381E-18 -9.558253E-04  3.140432E-03
       103 -1.224121E-18 -1.120053E-03  8.029701E-05
       104 -3.254266E-04 -1.565815E-03 -2.717313E-05
       105 -2.733675E-18 -1.587882E-03 -6.440695E-05
       106  3.254266E-04 -1.565815E-03 -2.717313E-05
       107 -4.221348E-18 -2.671112E-03  8.483892E-06
       108 -3.507140E-04 -3.827637E-03  1.254853E-04
       109 -5.265125E-18 -3.843718E-03  1.190351E-04
       110  3.507140E-04 -3.827637E-03  1.254853E-04
       111 -7.278686E-18 -5.169067E-03  3.374604E-04
       112 -3.350626E-04 -6.518117E-03  6.339338E-04
       113 -8.734180E-18 -6.519940E-03  6.326878E-04
       114  3.350626E-04 -6.518117E-03  6.339338E-04
       115 -1.078453E-17 -7.818143E-03  1.024269E-03
       116 -3.092984E-04 -8.974472E-03  1.504400E-03
       117 -9.728943E-18 -8.966686E-03  1.505053E-03
       118  3.092984E-04 -8.974472E-03  1.504400E-03
       119 -1.008119E-17 -9.887816E-03  2.076442E-03
       120 -2.826841E-04 -1.048527E-02  2.740838E-03
       121 -9.312964E-18 -1.047092E-02  2.741807E-03
       122  2.826841E-04 -1.048527E-02  2.740838E-03
       123 -1.101110E-17 -1.065243E-02  3.486421E-03
       124 -2.542339E-04 -1.032538E-02  4.330627E-03
       125 -1.509151E-17 -1.030270E-02  4.332887E-03
       126  2.542339E-04 -1.032538E-02  4.330627E-03
       127 -1.630456E-17 -9.408564E-03  5.239423E-03
       128 -2.219539E-04 -7.891215E-03  6.258912E-03
       129 -2.003307E-17 -7.863511E-03  6.264159E-03
       130  2.219539E-04 -7.891215E-03  6.258912E-03
       131 -2.451400E-17 -5.333650E-03  7.298435E-03
       132  7.694571E-04 -2.183038E-04  4.817527E-04
       133  6.248512E-04 -1.206556E-03  3.810641E-04
       134  6.041162E-04 -9.265756E-04  7.153825E-04
       135  5.531594E-04 -6.263400E-04  1.113625E-03
       136  6.945051E-04 -1.903480E-03  1.040308E-03
       137  6.964367E-04 -3.463342E-03  7.470217E-04
       138  6.883635E-04 -3.132089E-03  1.326310E-03
       139  6.622327E-04 -2.797554E-03  1.917983E-03
       140  6.903859E-04 -4.465978E-03  1.622182E-03
       141  6.821600E-04 -6.186907E-03  1.289552E-03
       142  6.949291E-04 -5.849664E-03  1.908970E-03
       143  6.994947E-04 -5.501109E-03  2.530425E-03
       144  6.916212E-04 -7.168936E-03  2.200100E-03
       145  6.564373E-04 -8.683833E-03  2.015419E-03
       146  6.936735E-04 -8.350630E-03  2.489380E-03
       147  7.282976E-04 -7.993771E-03  2.967769E-03
       148  6.919314E-04 -9.290009E-03  2.781562E-03
       149  6.315651E-04 -1.023986E-02  2.922422E-03
       150  6.988644E-04 -9.915028E-03  3.076005E-03
       151  7.545677E-04 -9.552798E-03  3.213854E-03
       152  6.889551E-04 -1.010252E-02  3.358781E-03
       153  6.082977E-04 -1.012045E-02  4.009554E-03
       154  7.038174E-04 -9.810797E-03  3.641558E-03
       155  7.868145E-04 -9.420151E-03  3.325294E-03
       156  6.769593E-04 -8.901571E-03  3.963579E-03
       157  6.075134E-04 -7.741431E-03  5.260258E-03
       158  7.827661E-04 -7.435646E-03  4.256242E-03
       159  7.650034E-04 -7.004190E-03  3.075739E-03
       160  6.265069E-04 -4.911952E-03  4.598633E-03
       161  6.729739E-19  4.182638E-04  8.830211E-04
       162  2.554601E-04 -3.892005E-04  1.521716E-03
       163  1.331075E-18 -3.811170E-04  1.494840E-03
       164 -2.554601E-04 -3.892005E-04  1.521716E-03
       165  2.698283E-18 -1.284384E-03  2.071661E-03
       166  3.163147E-04 -2.471914E-03  2.538913E-03
       167  2.541972E-18 -2.469807E-03  2.533351E-03
       168 -3.163147E-04 -2.471914E-03  2.538913E-03
       169  4.022921E-18 -3.791407E-03  2.907020E-03
       170  3.527814E-04 -5.139855E-03  3.187714E-03
       171  5.036082E-18 -5.133904E-03  3.185578E-03
       172 -3.527814E-04 -5.139855E-03  3.187714E-03
       173  5.895177E-18 -6.438361E-03  3.375533E-03
       174  3.800575E-04 -7.591506E-03  3.473618E-03
       175  6.162502E-18 -7.579846E-03  3.473410E-03
       176 -3.800575E-04 -7.591506E-03  3.473618E-03
       177  5.756171E-18 -8.502517E-03  3.489203E-03
       178  4.097519E-04 -9.101253E-03  3.415321E-03
       179  6.409730E-18 -9.080402E-03  3.414552E-03
       180 -4.097519E-04 -9.101253E-03  3.415321E-03
       181  7.212380E-18 -9.282484E-03  3.224627E-03
       182  4.186799E-04 -8.920440E-03  2.944940E-03
       183  6.805274E-18 -8.880976E-03  2.956906E-03
       184 -4.186799E-04 -8.920440E-03  2.944940E-03
       185  6.440065E-18 -8.010473E-03  2.669115E-03
       186  4.273890E-04 -6.353610E-03  2.331302E-03
       187  6.759111E-18 -6.297156E-03  2.356636E-03
       188 -4.273890E-04 -6.353610E-03  2.331302E-03
       189  4.760450E-18 -4.366484E-03  1.402775E-03
       190 -7.694571E-04 -2.183038E-04  4.817527E-04
       191 -5.531594E-04 -6.263400E-04  1.113625E-03
       192 -6.041162E-04 -9.265756E-04  7.153825E-04
       193 -6.248512E-04 -1.206556E-03  3.810641E-04
       194 -6.945051E-04 -1.903480E-03  1.040308E-03
       195 -6.622327E-04 -2.797554E-03  1.917983E-03
       196 -6.883635E-04 -3.132089E-03  1.326310E-03
       197 -6.964367E-04 -3.463342E-03  7.470217E-04
       198 -6.903859E-04 -4.465978E-03  1.622182E-03
       199 -6.994947E-04 -5.501109E-03  2.530425E-03
       200 -6.949291E-04 -5.849664E-03  1.908970E-03
       201 -6.821600E-04 -6.186907E-03  1.289552E-03
       202 -6.916212E-04 -7.168936E-03  2.200100E-03
       203 -7.282976E-04 -7.993771E-03  2.967769E-03
       204 -6.936735E-04 -8.350630E-03  2.489380E-03
       205 -6.564373E-04 -8.683833E-03  2.015419E-03
       206 -6.919314E-04 -9.290009E-03  2.781562E-03
       207 -7.545677E-04 -9.552798E-03  3.213854E-03
       208 -6.988644E-04 -9.915028E-03  3.076005E-03
       209 -6.315651E-04 -1.023986E-02  2.922422E-03
       210 -6.889551E-04 -1.010252E-02  3.358781E-03
       211 -7.868145E-04 -9.420151E-03  3.325294E-03
       212 -7.038174E-04 -9.810797E-03  3.641558E-03
       213 -6.082977E-04 -1.012045E-02  4.009554E-03
       214 -6.769593E-04 -8.901571E-03  3.963579E-03
       215 -7.650034E-04 -7.004190E-03  3.075739E-03
       216 -7.827661E-04 -7.435646E-03  4.256242E-03
       217 -6.075134E-04 -7.741431E-03  5.260258E-03
       218 -6.265069E-04 -4.911952E-03  4.598633E-03
       219 -1.189169E-19 -2.714497E-04  5.998002E-04
       220 -1.620678E-18 -1.261164E-03  3.170475E-04
       221 -3.024923E-04 -9.631851E-04  6.927419E-04
       222 -6.499290E-19 -9.677845E-04  6.577621E-04
       223  3.024923E-04 -9.631851E-04  6.927419E-04
       224  3.392104E-19 -6.569213E-04  1.068259E-03
       225 -6.541171E-19 -1.935688E-03  1.049503E-03
       226 -3.522698E-18 -3.492598E-03  7.297400E-04
       227 -3.432143E-04 -3.144457E-03  1.321842E-03
       228 -1.179765E-18 -3.149859E-03  1.318300E-03
       229  3.432143E-04 -3.144457E-03  1.321842E-03
       230  7.431717E-19 -2.807459E-03  1.914264E-03
       231 -1.835392E-18 -4.471632E-03  1.621878E-03
       232 -5.673228E-18 -6.182448E-03  1.282978E-03
       233 -3.475759E-04 -5.843771E-03  1.909938E-03
       234 -1.961521E-18 -5.841394E-03  1.910134E-03
       235  3.475759E-04 -5.843771E-03  1.909938E-03
       236  1.527364E-18 -5.489313E-03  2.535741E-03
       237 -1.838399E-18 -7.146864E-03  2.199562E-03
       238 -4.806088E-18 -8.650466E-03  2.009426E-03
       239 -3.467591E-04 -8.324728E-03  2.488991E-03
       240 -2.579268E-18 -8.316433E-03  2.489333E-03
       241  3.467591E-04 -8.324728E-03  2.488991E-03
       242  2.168545E-18 -7.956699E-03  2.972802E-03
       243 -1.620156E-18 -9.240435E-03  2.782315E-03
       244 -7.249881E-18 -1.017874E-02  2.915907E-03
       245 -3.495346E-04 -9.869350E-03  3.075121E-03
       246 -2.221700E-18 -9.855370E-03  3.071711E-03
       247  3.495346E-04 -9.869350E-03  3.075121E-03
       248  1.528598E-18 -9.484460E-03  3.220789E-03
       249 -3.036560E-18 -1.002510E-02  3.362338E-03
       250 -8.554520E-18 -1.003578E-02  3.998791E-03
       251 -3.520207E-04 -9.746102E-03  3.633072E-03
       252 -3.681655E-18 -9.723520E-03  3.632267E-03
       253  3.520207E-04 -9.746102E-03  3.633072E-03
       254  8.799084E-19 -9.322160E-03  3.325045E-03
       255 -5.876529E-18 -8.803485E-03  3.970359E-03
       256 -1.268092E-17 -7.609109E-03  5.256891E-03
       257 -3.905761E-04 -7.341014E-03  4.261554E-03
       258 -7.414423E-18 -7.307231E-03  4.240744E-03
       259  3.905761E-04 -7.341014E-03  4.261554E-03
       260 -1.306876E-18 -6.834803E-03  3.141255E-03
       261 -4.998797E-18 -4.821845E-03  4.566999E-03

 stresses (elem, integ.pnt.,sxx,syy,szz,sxy,sxz,syz) for set EALL and time  0.1000000E+01

         1   1 -1.983110E+02 -1.992611E+02 -3.249489E+02  4.968276E+00 -1.068023E+02 -1.053651E+02
         1   2 -1.780253E+02 -1.792897E+02 -2.784481E+02 -5.308768E-01 -1.882464E+01 -1.111485E+02
         1   3 -1.514864E+02 -1.425075E+02 -1.617418E+02  4.335145E+00 -9.649018E+01 -2.252724E+01
         1   4 -1.322138E+02 -1.238203E+02 -1.163551E+02 -7.447668E-01 -1.632630E+01 -2.805337E+01
         1   5  8.166715E+01  7.954460E+01 -1.822587E+02 -1.189489E+00  4.975619E+01  3.842708E+01
         1   6  5.842276E+01  5.840388E+01 -2.458876E+02 -2.505957E+00  1.741200E+01  3.761906E+01
         1   7  5.862033E+01  5.842897E+01 -1.547489E+02 -3.871235E-01  4.283646E+01 -5.889480E+00
         1   8  3.351894E+01  3.468610E+01 -2.180427E+02 -8.379311E-01  1.530502E+01 -4.262549E+00
         2   1 -1.780253E+02 -1.792897E+02 -2.784481E+02  5.308768E-01  1.882464E+01 -1.111485E+02
         2   2 -1.983110E+02 -1.992611E+02 -3.249489E+02 -4.968276E+00  1.068023E+02 -1.053651E+02
         2   3 -1.322138E+02 -1.238203E+02 -1.163551E+02  7.447668E-01  1.632630E+01 -2.805337E+01
         2   4 -1.514864E+02 -1.425075E+02 -1.617418E+02 -4.335145E+00  9.649018E+01 -2.252724E+01
         2   5  5.842276E+01  5.840388E+01 -2.458876E+02  2.505957E+00 -1.741200E+01  3.761906E+01
         2   6  8.166715E+01  7.954460E+01 -1.822587E+02  1.189489E+00 -4.975619E+01  3.842708E+01
         2   7  3.351894E+01  3.468610E+01 -2.180427E+02  8.379311E-01 -1.530502E+01 -4.262549E+00
         2   8  5.862033E+01  5.842897E+01 -1.547489E+02  3.871235E-01 -4.283646E+01 -5.889480E+00
         3   1 -1.509964E+02 -1.586185E+02 -9.767879E+01  3.276877E+00 -8.916812E+01  9.633918E+00
         3   2 -1.321625E+02 -1.405805E+02 -5.345038E+01 -1.228581E+00 -1.480469E+01  3.024406E+00
         3   3 -1.413274E+02 -1.404093E+02 -2.192960E+01  2.571436E+00 -7.980626E+01  8.112878E+01
         3   4 -1.230535E+02 -1.231900E+02  1.934726E+01 -1.587498E+00 -1.337440E+01  7.432159E+01
         3   5  5.025820E+01  4.862366E+01 -1.015494E+02  3.685658E+00  3.961530E+01 -3.630025E+01
         3   6  2.677627E+01  2.560651E+01 -1.612299E+02  6.594322E-01  1.428885E+01 -3.397731E+01
         3   7  6.549158E+01  6.759421E+01  4.019225E+01  3.724401E+00  3.692084E+01 -4.853750E+01
         3   8  4.862480E+01  5.045046E+01 -1.013018E+01  1.560276E+00  1.287464E+01 -4.511868E+01
         4   1 -1.321625E+02 -1.405805E+02 -5.345038E+01  1.228581E+00  1.480469E+01  3.024406E+00
         4   2 -1.509964E+02 -1.586185E+02 -9.767879E+01 -3.276877E+00  8.916812E+01  9.633918E+00
         4   3 -1.230535E+02 -1.231900E+02  1.934726E+01  1.587498E+00  1.337440E+01  7.432159E+01
         4   4 -1.413274E+02 -1.404093E+02 -2.192960E+01 -2.571436E+00  7.980626E+01  8.112878E+01
         4   5  2.677627E+01  2.560651E+01 -1.612299E+02 -6.594322E-01 -1.428885E+01 -3.397731E+01
         4   6  5.025820E+01  4.862366E+01 -1.015494E+02 -3.685658E+00 -3.961530E+01 -3.630025E+01
         4   7  4.862480E+01  5.045046E+01 -1.013018E+01 -1.560276E+00 -1.287464E+01 -4.511868E+01
         4   8  6.549158E+01  6.759421E+01  4.019225E+01 -3.724401E+00 -3.692084E+01 -4.853750E+01
         5   1 -3.887289E+01 -3.606374E+01 -2.427572E+02 -1.559163E+00 -1.946642E+01 -2.673309E+01
         5   2 -2.472181E+01 -2.211613E+01 -2.155618E+02  9.592458E-01 -9.357634E+00 -2.226938E+01
         5   3 -2.824228E+01 -3.160519E+01 -1.570903E+02 -1.995226E+00 -1.542276E+01 -2.612308E+01
         5   4 -1.722740E+01 -2.148707E+01 -1.327795E+02  1.326204E+00 -8.634908E+00 -2.348497E+01
         5   5  1.440638E+01  1.531419E+01 -1.730745E+02  1.158812E+00  8.644605E+00  1.420958E+00
         5   6  7.691893E+00  9.039288E+00 -1.847582E+02  5.968151E-01  3.446481E+00 -2.841391E-01
         5   7  8.337051E+00  9.420573E+00 -1.434160E+02  8.174454E-01  4.790859E+00 -1.791257E+01
         5   8  2.413031E+00  3.810331E+00 -1.531782E+02  3.007118E-01  1.975193E+00 -1.621309E+01
         6   1 -2.472181E+01 -2.211613E+01 -2.155618E+02 -9.592458E-01  9.357634E+00 -2.226938E+01
         6   2 -3.887289E+01 -3.606374E+01 -2.427572E+02  1.559163E+00  1.946642E+01 -2.673309E+01
         6   3 -1.722740E+01 -2.148707E+01 -1.327795E+02 -1.326204E+00  8.634908E+00 -2.348497E+01
         6   4 -2.824228E+01 -3.160519E+01 -1.570903E+02  1.995226E+00  1.542276E+01 -2.612308E+01
         6   5  7.691893E+00  9.039288E+00 -1.847582E+02 -5.968151E-01 -3.446481E+00 -2.841391E-01
         6   6  1.440638E+01  1.531419E+01 -1.730745E+02 -1.158812E+00 -8.644605E+00  1.420958E+00
         6   7  2.413031E+00  3.810331E+00 -1.531782E+02 -3.007118E-01 -1.975193E+00 -1.621309E+01
         6   8  8.337051E+00  9.420573E+00 -1.434160E+02 -8.174454E-01 -4.790859E+00 -1.791257E+01
         7   1 -1.949491E+01 -1.443563E+01 -1.013720E+02 -1.526068E+00 -1.414804E+01 -8.435207E+00
         7   2 -8.444848E+00 -4.170538E+00 -7.804538E+01  1.312692E+00 -8.101141E+00 -6.847503E+00
         7   3 -3.397810E+01 -3.674652E+01 -6.408070E+01 -2.211585E+00 -1.569723E+01  8.063437E+00
         7   4 -2.133381E+01 -2.558209E+01 -4.269727E+01  1.430228E+00 -8.430525E+00  6.944134E+00
         7   5  6.021491E+00  4.468739E+00 -1.157250E+02 -2.453627E-01  4.286075E+00 -2.276122E+01
         7   6  6.892984E-01 -5.269591E-01 -1.244214E+02 -1.570991E-01  1.850456E+00 -2.002120E+01
         7   7  1.103931E+01  1.014330E+01 -6.545956E+01 -5.541044E-01  5.300438E+00 -1.290612E+01
         7   8  5.943908E+00  5.273526E+00 -7.423983E+01 -4.234253E-01  1.427797E+00 -9.734190E+00
         8   1 -8.444848E+00 -4.170538E+00 -7.804538E+01 -1.312692E+00  8.101141E+00 -6.847503E+00
         8   2 -1.949491E+01 -1.443563E+01 -1.013720E+02  1.526068E+00  1.414804E+01 -8.435207E+00
         8   3 -2.133381E+01 -2.558209E+01 -4.269727E+01 -1.430228E+00  8.430525E+00  6.944134E+00
         8   4 -3.397810E+01 -3.674652E+01 -6.408070E+01  2.211585E+00  1.569723E+01  8.063437E+00
         8   5  6.892984E-01 -5.269591E-01 -1.244214E+02  1.570991E-01 -1.850456E+00 -2.002120E+01
         8   6  6.021491E+00  4.468739E+00 -1.157250E+02  2.453627E-01 -4.286075E+00 -2.276122E+01
         8   7  5.943908E+00  5.273526E+00 -7.423983E+01  4.234253E-01 -1.427797E+00 -9.734190E+00
         8   8  1.103931E+01  1.014330E+01 -6.545956E+01  5.541044E-01 -5.300438E+00 -1.290612E+01
         9   1 -5.894034E+00 -7.311518E+00 -1.631302E+02 -1.045041E+00 -3.585335E+00 -1.214948E+01
         9   2 -5.291376E+00 -4.543713E+00 -1.577778E+02 -1.105824E+00 -8.116747E-01 -8.733649E+00
         9   3 -2.404849E+00 -4.522381E+00 -1.366657E+02 -4.626649E-01 -1.924437E+00 -1.934294E+01
         9   4 -2.182405E+00 -2.059092E+00 -1.332567E+02 -6.712506E-01 -9.123652E-01 -1.642398E+01
         9   5  2.386356E+00  2.781802E+00 -1.219091E+02  7.086665E-01  2.307500E+00 -5.521481E+00
         9   6  8.906341E-01  8.690883E-01 -1.244222E+02  4.145082E-01  1.272709E+00 -5.716235E+00
         9   7  8.593327E-01  1.671941E+00 -1.279039E+02  3.914206E-01  1.256861E-01 -1.897321E+01
         9   8 -2.088868E-02  3.358960E-01 -1.288023E+02  1.341958E-01  5.197053E-02 -1.698010E+01
        10   1 -5.291376E+00 -4.543713E+00 -1.577778E+02  1.105824E+00  8.116747E-01 -8.733649E+00
        10   2 -5.894034E+00 -7.311518E+00 -1.631302E+02  1.045041E+00  3.585335E+00 -1.214948E+01
        10   3 -2.182405E+00 -2.059092E+00 -1.332567E+02  6.712506E-01  9.123652E-01 -1.642398E+01
        10   4 -2.404849E+00 -4.522381E+00 -1.366657E+02  4.626649E-01  1.924437E+00 -1.934294E+01
        10   5  8.906341E-01  8.690883E-01 -1.244222E+02 -4.145082E-01 -1.272709E+00 -5.716235E+00
        10   6  2.386356E+00  2.781802E+00 -1.219091E+02 -7.086665E-01 -2.307500E+00 -5.521481E+00
        10   7 -2.088868E-02  3.358960E-01 -1.288023E+02 -1.341958E-01 -5.197053E-02 -1.698010E+01
        10   8  8.593327E-01  1.671941E+00 -1.279039E+02 -3.914206E-01 -1.256861E-01 -1.897321E+01
        11   1 -2.029432E+00 -3.751747E+00 -1.212358E+02  9.139636E-01 -1.497257E+00 -1.683830E+01
        11   2 -2.211267E+00 -2.076576E+00 -1.184145E+02 -5.121780E-02 -6.761787E-01 -1.485188E+01
        11   3 -3.278350E+00 -1.678618E+00 -1.040121E+02  1.393159E+00 -3.821679E+00 -4.846723E+00
        11   4 -3.259366E+00  2.831649E-01 -9.990568E+01  2.701344E-01 -1.708024E+00 -5.421422E+00
        11   5 -4.818376E-02 -1.514448E-01 -1.315890E+02 -2.409499E-01  1.088244E-01 -2.033456E+01
        11   6 -6.221444E-01 -8.457666E-01 -1.321488E+02 -1.648801E-01  1.038777E-01 -1.747357E+01
        11   7  1.682855E+00  1.491740E+00 -1.328312E+02 -5.062642E-01  4.478490E-01 -7.920760E+00
        11   8  6.078624E-01  2.679124E-01 -1.347802E+02 -3.468709E-01 -2.835906E-01 -5.606026E+00
        12   1 -2.211267E+00 -2.076576E+00 -1.184145E+02  5.121780E-02  6.761787E-01 -1.485188E+01
        12   2 -2.029432E+00 -3.751747E+00 -1.212358E+02 -9.139636E-01  1.497257E+00 -1.683830E+01
        12   3 -3.259366E+00  2.831649E-01 -9.990568E+01 -2.701344E-01  1.708024E+00 -5.421422E+00
        12   4 -3.278350E+00 -1.678618E+00 -1.040121E+02 -1.393159E+00  3.821679E+00 -4.846723E+00
        12   5 -6.221444E-01 -8.457666E-01 -1.321488E+02  1.648801E-01 -1.038777E-01 -1.747357E+01
        12   6 -4.818376E-02 -1.514448E-01 -1.315890E+02  2.409499E-01 -1.088244E-01 -2.033456E+01
        12   7  6.078624E-01  2.679124E-01 -1.347802E+02  3.468709E-01  2.835906E-01 -5.606026E+00
        12   8  1.682855E+00  1.491740E+00 -1.328312E+02  5.062642E-01 -4.478490E-01 -7.920760E+00
        13   1 -1.241778E+00 -1.247706E+00 -9.935800E+01 -5.219281E-01 -1.630018E-01 -8.644755E+00
        13   2 -2.180254E-01  8.705047E-02 -9.819027E+01 -2.326318E-01  2.201751E-01 -6.572672E+00
        13   3 -4.855330E-01 -9.973134E-01 -1.212372E+02 -3.438261E-01  1.448652E-01 -1.888351E+01
        13   4 -7.516305E-02 -3.262321E-01 -1.211233E+02  1.111100E-02 -1.208260E-01 -1.609093E+01
        13   5  5.044196E-01  4.525577E-01 -6.375982E+01  1.507396E-01  1.162408E+00 -6.535106E+00
        13   6 -3.745741E-03 -1.952284E-01 -6.414014E+01  1.947658E-01  8.555124E-01 -5.930676E+00
        13   7 -1.412485E-01 -4.664040E-02 -1.121985E+02  7.305291E-02 -2.891904E-01 -1.962598E+01
        13   8 -3.989087E-01 -4.531472E-01 -1.122945E+02  5.371776E-02 -7.819449E-02 -1.748669E+01
        14   1 -2.180254E-01  8.705047E-02 -9.819027E+01  2.326318E-01 -2.201751E-01 -6.572672E+00
        14   2 -1.241778E+00 -1.247706E+00 -9.935800E+01  5.219281E-01  1.630018E-01 -8.644755E+00
        14   3 -7.516305E-02 -3.262321E-01 -1.211233E+02 -1.111100E-02  1.208260E-01 -1.609093E+01
        14   4 -4.855330E-01 -9.973134E-01 -1.212372E+02  3.438261E-01 -1.448652E-01 -1.888351E+01
        14   5 -3.745741E-03 -1.952284E-01 -6.414014E+01 -1.947658E-01 -8.555124E-01 -5.930676E+00
        14   6  5.044196E-01  4.525577E-01 -6.375982E+01 -1.507396E-01 -1.162408E+00 -6.535106E+00
        14   7 -3.989087E-01 -4.531472E-01 -1.122945E+02 -5.371776E-02  7.819449E-02 -1.748669E+01
        14   8 -1.412485E-01 -4.664040E-02 -1.121985E+02 -7.305291E-02  2.891904E-01 -1.962598E+01
        15   1  2.534147E-01  3.785364E-01 -1.367563E+02  1.516374E-01  2.877993E-01 -1.813391E+01
        15   2  4.531331E-01  5.491282E-01 -1.368906E+02  2.076072E-01 -4.414902E-03 -1.598873E+01
        15   3 -1.108328E+00 -1.364402E+00 -1.608561E+02  1.661581E-01 -1.157939E+00 -7.286567E+00
        15   4 -2.846969E-01 -5.981126E-01 -1.599632E+02  2.852095E-01 -9.993754E-01 -6.951252E+00
        15   5  4.775346E-01  7.291429E-01 -1.463803E+02 -4.030684E-01 -3.348685E-01 -1.860067E+01
        15   6  3.571011E-01  6.560806E-01 -1.464115E+02 -6.758924E-02 -1.391369E-02 -1.613079E+01
        15   7  2.451561E-01 -5.656014E-02 -1.943587E+02  3.062516E-02 -4.676903E-01 -8.080494E+00
        15   8 -7.201195E-02 -2.751123E-01 -1.947535E+02  1.491388E-01 -4.933224E-01 -6.150670E+00
        16   1  4.531331E-01  5.491282E-01 -1.368906E+02 -2.076072E-01  4.414902E-03 -1.598873E+01
        16   2  2.534147E-01  3.785364E-01 -1.367563E+02 -1.516374E-01 -2.877993E-01 -1.813391E+01
        16   3 -2.846969E-01 -5.981126E-01 -1.599632E+02 -2.852095E-01  9.993754E-01 -6.951252E+00
        16   4 -1.108328E+00 -1.364402E+00 -1.608561E+02 -1.661581E-01  1.157939E+00 -7.286567E+00
        16   5  3.571011E-01  6.560806E-01 -1.464115E+02  6.758924E-02  1.391369E-02 -1.613079E+01
        16   6  4.775346E-01  7.291429E-01 -1.463803E+02  4.030684E-01  3.348685E-01 -1.860067E+01
        16   7 -7.201195E-02 -2.751123E-01 -1.947535E+02 -1.491388E-01  4.933224E-01 -6.150670E+00
        16   8  2.451561E-01 -5.656014E-02 -1.943587E+02 -3.062516E-02  4.676903E-01 -8.080494E+00
        17   1 -2.108192E-02  4.494290E-01 -3.907943E+01 -3.087941E-02  2.682555E-01 -8.500712E+00
        17   2 -1.457219E-02  6.804225E-01 -3.889293E+01 -9.568576E-02  5.744963E-01 -6.915016E+00
        17   3  1.418771E-01  7.019115E-01 -1.046661E+02  7.973151E-02  1.625127E-01 -1.877456E+01
        17   4  3.465709E-01  1.164096E+00 -1.041518E+02  7.669912E-03  9.860642E-02 -1.600031E+01
        17   5 -7.545324E-01 -1.424967E+00 -4.502996E+00 -2.193835E-02  1.120369E+00 -7.342953E+00
        17   6 -6.458053E-02 -1.334706E+00 -4.204276E+00 -2.461895E-01  6.917837E-01 -6.415226E+00
        17   7  6.519823E-01 -4.581129E-01 -9.518111E+01 -2.721301E-01 -5.279100E-01 -1.899609E+01
        17   8  2.255263E-01 -1.385243E+00 -9.648422E+01 -2.306547E-01 -6.209202E-01 -1.718250E+01
        18   1 -1.457219E-02  6.804225E-01 -3.889293E+01  9.568576E-02 -5.744963E-01 -6.915016E+00
        18   2 -2.108192E-02  4.494290E-01 -3.907943E+01  3.087941E-02 -2.682555E-01 -8.500712E+00
        18   3  3.465709E-01  1.164096E+00 -1.041518E+02 -7.669912E-03 -9.860642E-02 -1.600031E+01
        18   4  1.418771E-01  7.019115E-01 -1.046661E+02 -7.973151E-02 -1.625127E-01 -1.877456E+01
        18   5 -6.458053E-02 -1.334706E+00 -4.204276E+00  2.461895E-01 -6.917837E-01 -6.415226E+00
        18   6 -7.545324E-01 -1.424967E+00 -4.502996E+00  2.193835E-02 -1.120369E+00 -7.342953E+00
        18   7  2.255263E-01 -1.385243E+00 -9.648422E+01  2.306547E-01  6.209202E-01 -1.718250E+01
        18   8  6.519823E-01 -4.581129E-01 -9.518111E+01  2.721301E-01  5.279100E-01 -1.899609E+01
        19   1 -5.844317E-01  9.652832E-02 -1.546313E+02  6.963967E-02  5.177664E-01 -1.833190E+01
        19   2 -6.695074E-01 -2.345022E-01 -1.542621E+02  4.677908E-03  2.780697E-01 -1.603974E+01
        19   3 -9.621024E-02  6.931436E-01 -2.193116E+02 -6.943132E-02 -7.817104E-01 -7.178603E+00
        19   4 -3.658284E-01  1.966075E-01 -2.192143E+02 -1.431981E-01 -6.678867E-01 -6.795812E+00
        19   5 -3.500774E-01  1.368415E-01 -1.637197E+02  1.304566E+00 -1.702023E-01 -2.320925E+01
        19   6  1.589272E-01  1.456274E+00 -1.638759E+02  1.839281E-01 -4.052745E-01 -2.009924E+01
        19   7  3.943095E-01  2.295188E+00 -2.536337E+02  1.396343E-01 -2.868077E-01 -3.786745E+00
        19   8  1.557054E+00  4.097143E+00 -2.524334E+02 -1.332879E-01 -7.744559E-01 -1.509112E+00
        20   1 -6.695074E-01 -2.345022E-01 -1.542621E+02 -4.677908E-03 -2.780697E-01 -1.603974E+01
        20   2 -5.844317E-01  9.652832E-02 -1.546313E+02 -6.963967E-02 -5.177664E-01 -1.833190E+01
        20   3 -3.658284E-01  1.966075E-01 -2.192143E+02  1.431981E-01  6.678867E-01 -6.795812E+00
        20   4 -9.621024E-02  6.931436E-01 -2.193116E+02  6.943132E-02  7.817104E-01 -7.178603E+00
        20   5  1.589272E-01  1.456274E+00 -1.638759E+02 -1.839281E-01  4.052745E-01 -2.009924E+01
        20   6 -3.500774E-01  1.368415E-01 -1.637197E+02 -1.304566E+00  1.702023E-01 -2.320925E+01
        20   7  1.557054E+00  4.097143E+00 -2.524334E+02  1.332879E-01  7.744559E-01 -1.509112E+00
        20   8  3.943095E-01  2.295188E+00 -2.536337E+02 -1.396343E-01  2.868077E-01 -3.786745E+00
        21   1  4.841794E-01  1.212513E+00  1.992013E+01  3.479222E-01  1.683857E-01 -8.686394E+00