
 displacements (vx,vy,vz) for set N1 and time  0.1000000E-04

       100  1.912422E-08 -1.474338E-02  4.542071E-09
