
 displacements (vx,vy,vz) for set NALL and time  0.1000000E+01

         1  0.000000E+00  0.000000E+00  0.000000E+00
         2 -4.411388E-03  0.000000E+00  0.000000E+00
         3 -4.411388E-03 -4.411388E-03  0.000000E+00
         4 -1.279613E-17 -4.411388E-03  0.000000E+00
         5  5.083570E-10  5.084299E-10  8.549874E-02
         6 -4.411389E-03  5.084298E-10  8.549874E-02
         7 -4.411389E-03 -4.411389E-03  8.549874E-02
         8  5.083571E-10 -4.411389E-03  8.549874E-02
         9 -1.102847E-03  9.237518E-15  0.000000E+00
        10 -2.205694E-03  3.582023E-14  0.000000E+00
        11 -3.308541E-03  9.235497E-15  0.000000E+00
        12 -4.411388E-03 -1.102847E-03  0.000000E+00
        13 -4.411388E-03 -2.205694E-03  0.000000E+00
        14 -4.411388E-03 -3.308541E-03  0.000000E+00
        15 -3.308541E-03 -4.411388E-03  0.000000E+00
        16 -2.205694E-03 -4.411388E-03  0.000000E+00
        17 -1.102847E-03 -4.411388E-03  0.000000E+00
        18  9.216571E-15 -3.308541E-03  0.000000E+00
        19  3.579821E-14 -2.205694E-03  0.000000E+00
        20  9.222295E-15 -1.102847E-03  0.000000E+00
        21 -1.102847E-03  5.133908E-10  8.549874E-02
        22 -2.205694E-03  4.850407E-10  8.549874E-02
        23 -3.308541E-03  5.133908E-10  8.549874E-02
        24 -4.411389E-03 -1.102847E-03  8.549874E-02
        25 -4.411389E-03 -2.205694E-03  8.549874E-02
        26 -4.411389E-03 -3.308541E-03  8.549874E-02
        27 -3.308541E-03 -4.411389E-03  8.549874E-02
        28 -2.205694E-03 -4.411389E-03  8.549874E-02
        29 -1.102847E-03 -4.411389E-03  8.549874E-02
        30  5.133750E-10 -3.308541E-03  8.549874E-02
        31  4.850696E-10 -2.205694E-03  8.549874E-02
        32  5.133749E-10 -1.102847E-03  8.549874E-02
        33 -4.411388E-03 -5.080155E-14  5.343671E-03
        34 -4.411388E-03 -1.563671E-13  1.068734E-02
        35 -4.411388E-03 -3.128137E-14  1.603101E-02
        36 -4.411388E-03  8.886216E-14  2.137468E-02
        37 -4.411388E-03  9.209105E-14  2.671835E-02
        38 -4.411388E-03 -7.773497E-13  3.206203E-02
        39 -4.411388E-03 -4.754007E-13  3.740570E-02
        40 -4.411388E-03  4.892100E-13  4.274937E-02
        41 -4.411388E-03  3.120848E-12  4.809304E-02
        42 -4.411388E-03 -6.084469E-12  5.343671E-02
        43 -4.411388E-03 -8.131688E-12  5.878038E-02
        44 -4.411388E-03 -9.013791E-13  6.412405E-02
        45 -4.411388E-03  4.924257E-11  6.946772E-02
        46 -4.411388E-03 -4.383987E-11  7.481139E-02
        47 -4.411388E-03 -1.194162E-10  8.015506E-02
        48 -1.193914E-10 -1.194161E-10  8.015506E-02
        49 -4.385684E-11 -4.383983E-11  7.481139E-02
        50  4.924283E-11  4.924263E-11  6.946772E-02
        51 -8.986803E-13 -9.013231E-13  6.412405E-02
        52 -8.136196E-12 -8.131662E-12  5.878038E-02
        53 -6.082936E-12 -6.084429E-12  5.343671E-02
        54  3.120461E-12  3.120859E-12  4.809304E-02
        55  4.893496E-13  4.892317E-13  4.274937E-02
        56 -4.760856E-13 -4.753881E-13  3.740570E-02
        57 -7.775077E-13 -7.773295E-13  3.206203E-02
        58  9.191099E-14  9.210994E-14  2.671835E-02
        59  8.873304E-14  8.887638E-14  2.137468E-02
        60 -3.140936E-14 -3.125331E-14  1.603101E-02
        61 -1.563982E-13 -1.563488E-13  1.068734E-02
        62 -5.080890E-14 -5.078788E-14  5.343671E-03
        63 -4.411388E-03 -4.411388E-03  5.343671E-03
        64 -4.411388E-03 -4.411388E-03  1.068734E-02
        65 -4.411388E-03 -4.411388E-03  1.603101E-02
        66 -4.411388E-03 -4.411388E-03  2.137468E-02
        67 -4.411388E-03 -4.411388E-03  2.671835E-02
        68 -4.411388E-03 -4.411388E-03  3.206203E-02
        69 -4.411388E-03 -4.411388E-03  3.740570E-02
        70 -4.411388E-03 -4.411388E-03  4.274937E-02
        71 -4.411388E-03 -4.411388E-03  4.809304E-02
        72 -4.411388E-03 -4.411388E-03  5.343671E-02
        73 -4.411388E-03 -4.411388E-03  5.878038E-02
        74 -4.411388E-03 -4.411388E-03  6.412405E-02
        75 -4.411388E-03 -4.411388E-03  6.946772E-02
        76 -4.411388E-03 -4.411388E-03  7.481139E-02
        77 -4.411388E-03 -4.411388E-03  8.015506E-02
        78 -5.081440E-14 -4.411388E-03  5.343671E-03
        79 -1.563931E-13 -4.411388E-03  1.068734E-02
        80 -3.139670E-14 -4.411388E-03  1.603101E-02
        81  8.876086E-14 -4.411388E-03  2.137468E-02
        82  9.193889E-14 -4.411388E-03  2.671835E-02
        83 -7.774934E-13 -4.411388E-03  3.206203E-02
        84 -4.760798E-13 -4.411388E-03  3.740570E-02
        85  4.893365E-13 -4.411388E-03  4.274937E-02
        86  3.120508E-12 -4.411388E-03  4.809304E-02
        87 -6.082913E-12 -4.411388E-03  5.343671E-02
        88 -8.136169E-12 -4.411388E-03  5.878038E-02
        89 -8.986537E-13 -4.411388E-03  6.412405E-02
        90  4.924290E-11 -4.411388E-03  6.946772E-02
        91 -4.385682E-11 -4.411388E-03  7.481139E-02
        92 -1.193913E-10 -4.411388E-03  8.015506E-02
        93 -2.205694E-03 -1.102847E-03  0.000000E+00
        94 -1.102847E-03 -2.205694E-03  0.000000E+00
        95 -2.205694E-03 -2.205694E-03  0.000000E+00
        96 -3.308541E-03 -2.205694E-03  0.000000E+00
        97 -2.205694E-03 -3.308541E-03  0.000000E+00
        98 -2.205694E-03 -1.102847E-03  8.549873E-02
        99 -1.102847E-03 -2.205694E-03  8.549873E-02
       100 -2.205694E-03 -2.205694E-03  8.549873E-02
       101 -3.308541E-03 -2.205694E-03  8.549873E-02
       102 -2.205694E-03 -3.308541E-03  8.549873E-02
       103 -2.205694E-03 -4.779829E-14  5.343671E-03
       104 -1.102847E-03 -1.405446E-13  1.068734E-02
       105 -2.205694E-03 -1.469049E-13  1.068734E-02
       106 -3.308541E-03 -1.405534E-13  1.068734E-02
       107 -2.205694E-03 -9.871944E-14  1.603101E-02
       108 -1.102847E-03  1.481335E-13  2.137468E-02
       109 -2.205694E-03  2.456831E-13  2.137468E-02
       110 -3.308541E-03  1.481268E-13  2.137468E-02
       111 -2.205694E-03  1.220843E-13  2.671835E-02
       112 -1.102847E-03 -6.052124E-13  3.206203E-02
       113 -2.205694E-03 -4.925183E-13  3.206203E-02
       114 -3.308541E-03 -6.052243E-13  3.206203E-02
       115 -2.205694E-03 -1.012717E-12  3.740570E-02
       116 -1.102847E-03  1.218982E-12  4.274937E-02
       117 -2.205694E-03  2.014633E-12  4.274937E-02
       118 -3.308541E-03  1.218972E-12  4.274937E-02
       119 -2.205694E-03  2.677775E-12  4.809304E-02
       120 -1.102847E-03 -3.994402E-12  5.343671E-02
       121 -2.205694E-03 -1.781659E-12  5.343671E-02
       122 -3.308541E-03 -3.994420E-12  5.343671E-02
       123 -2.205694E-03 -1.253422E-11  5.878038E-02
       124 -1.102847E-03  7.632098E-12  6.412405E-02
       125 -2.205694E-03  1.528351E-11  6.412405E-02
       126 -3.308541E-03  7.632073E-12  6.412405E-02
       127 -2.205694E-03  3.871305E-11  6.946772E-02
       128 -1.102847E-03 -9.058151E-12  7.481139E-02
       129 -2.205694E-03  2.988189E-11  7.481139E-02
       130 -3.308541E-03 -9.058164E-12  7.481139E-02
       131 -2.205694E-03 -2.118490E-10  8.015506E-02
       132 -4.411388E-03 -2.205694E-03  5.343671E-03
       133 -4.411388E-03 -1.102847E-03  1.068734E-02
       134 -4.411388E-03 -2.205694E-03  1.068734E-02
       135 -4.411388E-03 -3.308541E-03  1.068734E-02
       136 -4.411388E-03 -2.205694E-03  1.603101E-02
       137 -4.411388E-03 -1.102847E-03  2.137468E-02
       138 -4.411388E-03 -2.205694E-03  2.137468E-02
       139 -4.411388E-03 -3.308541E-03  2.137468E-02
       140 -4.411388E-03 -2.205694E-03  2.671835E-02
       141 -4.411388E-03 -1.102847E-03  3.206203E-02
       142 -4.411388E-03 -2.205694E-03  3.206203E-02
       143 -4.411388E-03 -3.308541E-03  3.206203E-02
       144 -4.411388E-03 -2.205694E-03  3.740570E-02
       145 -4.411388E-03 -1.102847E-03  4.274937E-02
       146 -4.411388E-03 -2.205694E-03  4.274937E-02
       147 -4.411388E-03 -3.308541E-03  4.274937E-02
       148 -4.411388E-03 -2.205694E-03  4.809304E-02
       149 -4.411388E-03 -1.102847E-03  5.343671E-02
       150 -4.411388E-03 -2.205694E-03  5.343671E-02
       151 -4.411388E-03 -3.308541E-03  5.343671E-02
       152 -4.411388E-03 -2.205694E-03  5.878038E-02
       153 -4.411388E-03 -1.102847E-03  6.412405E-02
       154 -4.411388E-03 -2.205694E-03  6.412405E-02
       155 -4.411388E-03 -3.308541E-03  6.412405E-02
       156 -4.411388E-03 -2.205694E-03  6.946772E-02
       157 -4.411388E-03 -1.102847E-03  7.481139E-02
       158 -4.411388E-03 -2.205694E-03  7.481139E-02
       159 -4.411388E-03 -3.308541E-03  7.481139E-02
       160 -4.411388E-03 -2.205694E-03  8.015506E-02
       161 -2.205694E-03 -4.411388E-03  5.343671E-03
       162 -3.308541E-03 -4.411388E-03  1.068734E-02
       163 -2.205694E-03 -4.411388E-03  1.068734E-02
       164 -1.102847E-03 -4.411388E-03  1.068734E-02
       165 -2.205694E-03 -4.411388E-03  1.603101E-02
       166 -3.308541E-03 -4.411388E-03  2.137468E-02
       167 -2.205694E-03 -4.411388E-03  2.137468E-02
       168 -1.102847E-03 -4.411388E-03  2.137468E-02
       169 -2.205694E-03 -4.411388E-03  2.671835E-02
       170 -3.308541E-03 -4.411388E-03  3.206203E-02
       171 -2.205694E-03 -4.411388E-03  3.206203E-02
       172 -1.102847E-03 -4.411388E-03  3.206203E-02
       173 -2.205694E-03 -4.411388E-03  3.740570E-02
       174 -3.308541E-03 -4.411388E-03  4.274937E-02
       175 -2.205694E-03 -4.411388E-03  4.274937E-02
       176 -1.102847E-03 -4.411388E-03  4.274937E-02
       177 -2.205694E-03 -4.411388E-03  4.809304E-02
       178 -3.308541E-03 -4.411388E-03  5.343671E-02
       179 -2.205694E-03 -4.411388E-03  5.343671E-02
       180 -1.102847E-03 -4.411388E-03  5.343671E-02
       181 -2.205694E-03 -4.411388E-03  5.878038E-02
       182 -3.308541E-03 -4.411388E-03  6.412405E-02
       183 -2.205694E-03 -4.411388E-03  6.412405E-02
       184 -1.102847E-03 -4.411388E-03  6.412405E-02
       185 -2.205694E-03 -4.411388E-03  6.946772E-02
       186 -3.308541E-03 -4.411388E-03  7.481139E-02
       187 -2.205694E-03 -4.411388E-03  7.481139E-02
       188 -1.102847E-03 -4.411388E-03  7.481139E-02
       189 -2.205694E-03 -4.411388E-03  8.015506E-02
       190 -4.782156E-14 -2.205694E-03  5.343671E-03
       191 -1.406137E-13 -3.308541E-03  1.068734E-02
       192 -1.469966E-13 -2.205694E-03  1.068734E-02
       193 -1.406157E-13 -1.102847E-03  1.068734E-02
       194 -9.880550E-14 -2.205694E-03  1.603101E-02
       195  1.479667E-13 -3.308541E-03  2.137468E-02
       196  2.454686E-13 -2.205694E-03  2.137468E-02
       197  1.479551E-13 -1.102847E-03  2.137468E-02
       198  1.219209E-13 -2.205694E-03  2.671835E-02
       199 -6.056066E-13 -3.308541E-03  3.206203E-02
       200 -4.931262E-13 -2.205694E-03  3.206203E-02
       201 -6.056208E-13 -1.102847E-03  3.206203E-02
       202 -1.012959E-12 -2.205694E-03  3.740570E-02
       203  1.218508E-12 -3.308541E-03  4.274937E-02
       204  2.013466E-12 -2.205694E-03  4.274937E-02
       205  1.218513E-12 -1.102847E-03  4.274937E-02
       206  2.678104E-12 -2.205694E-03  4.809304E-02
       207 -3.995559E-12 -3.308541E-03  5.343671E-02
       208 -1.784926E-12 -2.205694E-03  5.343671E-02
       209 -3.995568E-12 -1.102847E-03  5.343671E-02
       210 -1.253409E-11 -2.205694E-03  5.878038E-02
       211  7.631965E-12 -3.308541E-03  6.412405E-02
       212  1.527790E-11 -2.205694E-03  6.412405E-02
       213  7.631963E-12 -1.102847E-03  6.412405E-02
       214  3.871866E-11 -2.205694E-03  6.946772E-02
       215 -9.074087E-12 -3.308541E-03  7.481139E-02
       216  2.987548E-11 -2.205694E-03  7.481139E-02
       217 -9.074092E-12 -1.102847E-03  7.481139E-02
       218 -2.118592E-10 -2.205694E-03  8.015506E-02
       219 -2.205694E-03 -2.205694E-03  5.343671E-03
       220 -2.205694E-03 -1.102847E-03  1.068734E-02
       221 -1.102847E-03 -2.205694E-03  1.068734E-02
       222 -2.205694E-03 -2.205694E-03  1.068734E-02
       223 -3.308541E-03 -2.205694E-03  1.068734E-02
       224 -2.205694E-03 -3.308541E-03  1.068734E-02
       225 -2.205694E-03 -2.205694E-03  1.603101E-02
       226 -2.205694E-03 -1.102847E-03  2.137468E-02
       227 -1.102847E-03 -2.205694E-03  2.137468E-02
       228 -2.205694E-03 -2.205694E-03  2.137468E-02
       229 -3.308541E-03 -2.205694E-03  2.137468E-02
       230 -2.205694E-03 -3.308541E-03  2.137468E-02
       231 -2.205694E-03 -2.205694E-03  2.671835E-02
       232 -2.205694E-03 -1.102847E-03  3.206203E-02
       233 -1.102847E-03 -2.205694E-03  3.206203E-02
       234 -2.205694E-03 -2.205694E-03  3.206203E-02
       235 -3.308541E-03 -2.205694E-03  3.206203E-02
       236 -2.205694E-03 -3.308541E-03  3.206203E-02
       237 -2.205694E-03 -2.205694E-03  3.740570E-02
       238 -2.205694E-03 -1.102847E-03  4.274937E-02
       239 -1.102847E-03 -2.205694E-03  4.274937E-02
       240 -2.205694E-03 -2.205694E-03  4.274937E-02
       241 -3.308541E-03 -2.205694E-03  4.274937E-02
       242 -2.205694E-03 -3.308541E-03  4.274937E-02
       243 -2.205694E-03 -2.205694E-03  4.809304E-02
       244 -2.205694E-03 -1.102847E-03  5.343671E-02
       245 -1.102847E-03 -2.205694E-03  5.343671E-02
       246 -2.205694E-03 -2.205694E-03  5.343671E-02
       247 -3.308541E-03 -2.205694E-03  5.343671E-02
       248 -2.205694E-03 -3.308541E-03  5.343671E-02
       249 -2.205694E-03 -2.205694E-03  5.878038E-02
       250 -2.205694E-03 -1.102847E-03  6.412405E-02
       251 -1.102847E-03 -2.205694E-03  6.412405E-02
       252 -2.205694E-03 -2.205694E-03  6.412405E-02
       253 -3.308541E-03 -2.205694E-03  6.412405E-02
       254 -2.205694E-03 -3.308541E-03  6.412405E-02
       255 -2.205694E-03 -2.205694E-03  6.946772E-02
       256 -2.205694E-03 -1.102847E-03  7.481139E-02
       257 -1.102847E-03 -2.205694E-03  7.481139E-02
       258 -2.205694E-03 -2.205694E-03  7.481139E-02
       259 -3.308541E-03 -2.205694E-03  7.481139E-02
       260 -2.205694E-03 -3.308541E-03  7.481139E-02
       261 -2.205694E-03 -2.205694E-03  8.015506E-02

 stresses (elem, integ.pnt.,sxx,syy,szz,sxy,sxz,syz) for set EALL and time  0.1000000E+01

         1   1 -1.911753E-01 -1.911753E-01  9.723030E+02 -9.575763E-10  4.984884E-09  4.985600E-09
         1   2 -1.911753E-01 -1.911753E-01  9.723030E+02 -1.347448E-10  4.345988E-09  7.216705E-11
         1   3 -1.911753E-01 -1.911753E-01  9.723030E+02 -1.344110E-10  7.222429E-11  4.346893E-09
         1   4 -1.911753E-01 -1.911753E-01  9.723030E+02 -8.929420E-10  4.300474E-10  4.304207E-10
         1   5 -1.911753E-01 -1.911753E-01  9.723030E+02  5.042430E-09  3.784136E-09  3.784116E-09
         1   6 -1.911753E-01 -1.911753E-01  9.723030E+02  2.705897E-09 -1.370575E-09  1.940341E-09
         1   7 -1.911753E-01 -1.911753E-01  9.723030E+02  2.705073E-09  1.939982E-09 -1.370998E-09
         1   8 -1.911753E-01 -1.911753E-01  9.723030E+02  2.794985E-09 -2.501400E-09 -2.501898E-09
         2   1 -1.911753E-01 -1.911753E-01  9.723030E+02  1.347789E-10 -4.345863E-09  7.219140E-11
         2   2 -1.911753E-01 -1.911753E-01  9.723030E+02  9.574085E-10 -4.984952E-09  4.985557E-09
         2   3 -1.911753E-01 -1.911753E-01  9.723030E+02  8.932261E-10 -4.297196E-10  4.305614E-10
         2   4 -1.911753E-01 -1.911753E-01  9.723030E+02  1.348539E-10 -7.216255E-11  4.346917E-09
         2   5 -1.911753E-01 -1.911753E-01  9.723030E+02 -2.706102E-09  1.370756E-09  1.940502E-09
         2   6 -1.911753E-01 -1.911753E-01  9.723030E+02 -5.042383E-09 -3.784024E-09  3.784532E-09
         2   7 -1.911753E-01 -1.911753E-01  9.723030E+02 -2.795501E-09  2.502394E-09 -2.501898E-09
         2   8 -1.911753E-01 -1.911753E-01  9.723030E+02 -2.705048E-09 -1.939857E-09 -1.371018E-09
         3   1 -1.911753E-01 -1.911753E-01  9.723030E+02  1.345985E-10  7.229004E-11 -4.346810E-09
         3   2 -1.911753E-01 -1.911753E-01  9.723030E+02  8.930034E-10  4.298752E-10 -4.305639E-10
         3   3 -1.911753E-01 -1.911753E-01  9.723030E+02  9.575853E-10  4.984927E-09 -4.985804E-09
         3   4 -1.911753E-01 -1.911753E-01  9.723030E+02  1.348133E-10  4.346059E-09 -7.261046E-11
         3   5 -1.911753E-01 -1.911753E-01  9.723030E+02 -2.705222E-09  1.939240E-09  1.371410E-09
         3   6 -1.911753E-01 -1.911753E-01  9.723030E+02 -2.795424E-09 -2.501067E-09  2.501453E-09
         3   7 -1.911753E-01 -1.911753E-01  9.723030E+02 -5.042257E-09  3.783932E-09 -3.784289E-09
         3   8 -1.911753E-01 -1.911753E-01  9.723030E+02 -2.705743E-09 -1.370494E-09 -1.940836E-09
         4   1 -1.911753E-01 -1.911753E-01  9.723030E+02 -8.927833E-10 -4.295926E-10 -4.305151E-10
         4   2 -1.911753E-01 -1.911753E-01  9.723030E+02 -1.344896E-10 -7.220277E-11 -4.347078E-09
         4   3 -1.911753E-01 -1.911753E-01  9.723030E+02 -1.344789E-10 -4.345873E-09 -7.240906E-11
         4   4 -1.911753E-01 -1.911753E-01  9.723030E+02 -9.577764E-10 -4.984709E-09 -4.985961E-09
         4   5 -1.911753E-01 -1.911753E-01  9.723030E+02  2.795122E-09  2.501882E-09  2.501123E-09
         4   6 -1.911753E-01 -1.911753E-01  9.723030E+02  2.705220E-09 -1.939222E-09  1.370891E-09
         4   7 -1.911753E-01 -1.911753E-01  9.723030E+02  2.706220E-09  1.371287E-09 -1.940890E-09
         4   8 -1.911753E-01 -1.911753E-01  9.723030E+02  5.042433E-09 -3.784057E-09 -3.784427E-09
         5   1 -1.911753E-01 -1.911753E-01  9.723030E+02 -3.468102E-09 -8.662386E-09 -8.663387E-09
         5   2 -1.911753E-01 -1.911753E-01  9.723030E+02 -2.733123E-09 -1.103217E-08 -2.894309E-09
         5   3 -1.911753E-01 -1.911753E-01  9.723030E+02 -2.732110E-09 -2.891455E-09 -1.103393E-08
         5   4 -1.911753E-01 -1.911753E-01  9.723030E+02 -3.483230E-10 -3.571745E-09 -3.574149E-09
         5   5 -1.911752E-01 -1.911752E-01  9.723030E+02 -7.944828E-09 -1.626728E-08 -1.627065E-08
         5   6 -1.911753E-01 -1.911753E-01  9.723030E+02 -4.724297E-09  1.237457E-08 -4.571055E-09
         5   7 -1.911753E-01 -1.911753E-01  9.723030E+02 -4.724145E-09 -4.575007E-09  1.237766E-08
         5   8 -1.911753E-01 -1.911753E-01  9.723030E+02 -5.985894E-09  1.418407E-08  1.418612E-08
         6   1 -1.911753E-01 -1.911753E-01  9.723030E+02  2.733172E-09  1.103300E-08 -2.894625E-09
         6   2 -1.911753E-01 -1.911753E-01  9.723030E+02  3.468138E-09  8.663099E-09 -8.663171E-09
         6   3 -1.911753E-01 -1.911753E-01  9.723030E+02  3.480680E-10  3.571775E-09 -3.573530E-09
         6   4 -1.911753E-01 -1.911753E-01  9.723030E+02  2.732236E-09  2.891213E-09 -1.103375E-08
         6   5 -1.911753E-01 -1.911753E-01  9.723030E+02  4.723785E-09 -1.237428E-08 -4.570424E-09
         6   6 -1.911752E-01 -1.911752E-01  9.723030E+02  7.945097E-09  1.626824E-08 -1.626984E-08
         6   7 -1.911753E-01 -1.911753E-01  9.723030E+02  5.985896E-09 -1.418278E-08  1.418591E-08
         6   8 -1.911753E-01 -1.911753E-01  9.723030E+02  4.723875E-09  4.573653E-09  1.237723E-08
         7   1 -1.911753E-01 -1.911753E-01  9.723030E+02  2.732267E-09 -2.891846E-09  1.103293E-08
         7   2 -1.911753E-01 -1.911753E-01  9.723030E+02  3.482576E-10 -3.571091E-09  3.573812E-09
         7   3 -1.911753E-01 -1.911753E-01  9.723030E+02  3.467833E-09 -8.663275E-09  8.663045E-09
         7   4 -1.911753E-01 -1.911753E-01  9.723030E+02  2.733094E-09 -1.103219E-08  2.894637E-09
         7   5 -1.911753E-01 -1.911753E-01  9.723030E+02  4.723616E-09 -4.574606E-09 -1.237764E-08
         7   6 -1.911753E-01 -1.911753E-01  9.723030E+02  5.985786E-09  1.418423E-08 -1.418744E-08
         7   7 -1.911752E-01 -1.911752E-01  9.723030E+02  7.944753E-09 -1.626634E-08  1.627091E-08
         7   8 -1.911753E-01 -1.911753E-01  9.723030E+02  4.723807E-09  1.237516E-08  4.571453E-09
         8   1 -1.911753E-01 -1.911753E-01  9.723030E+02 -3.482395E-10  3.572150E-09  3.573514E-09
         8   2 -1.911753E-01 -1.911753E-01  9.723030E+02 -2.732258E-09  2.891289E-09  1.103350E-08
         8   3 -1.911753E-01 -1.911753E-01  9.723030E+02 -2.732890E-09  1.103264E-08  2.894449E-09
         8   4 -1.911753E-01 -1.911753E-01  9.723030E+02 -3.468113E-09  8.662738E-09  8.662992E-09
         8   5 -1.911753E-01 -1.911753E-01  9.723030E+02 -5.985832E-09 -1.418250E-08 -1.418593E-08
         8   6 -1.911753E-01 -1.911753E-01  9.723030E+02 -4.723871E-09  4.573938E-09 -1.237827E-08
         8   7 -1.911753E-01 -1.911753E-01  9.723030E+02 -4.723903E-09 -1.237414E-08  4.569951E-09
         8   8 -1.911752E-01 -1.911752E-01  9.723030E+02 -7.944440E-09  1.626661E-08  1.626938E-08
         9   1 -1.911753E-01 -1.911753E-01  9.723030E+02  8.350939E-10  2.936776E-08  2.937280E-08
         9   2 -1.911753E-01 -1.911753E-01  9.723030E+02  1.571798E-09  2.730506E-08  1.520662E-09
         9   3 -1.911753E-01 -1.911753E-01  9.723030E+02  1.573024E-09  1.521434E-09  2.731028E-08
         9   4 -1.911753E-01 -1.911753E-01  9.723030E+02 -7.901433E-10  4.276542E-09  4.279574E-09
         9   5 -1.911754E-01 -1.911754E-01  9.723030E+02  3.690043E-08  4.205271E-08  4.205527E-08
         9   6 -1.911752E-01 -1.911753E-01  9.723030E+02  2.558817E-08 -5.486242E-08  3.736971E-08
         9   7 -1.911753E-01 -1.911752E-01  9.723030E+02  2.558273E-08  3.736089E-08 -5.487884E-08
         9   8 -1.911753E-01 -1.911753E-01  9.723030E+02  2.107938E-08 -4.265790E-08 -4.266278E-08
        10   1 -1.911753E-01 -1.911753E-01  9.723030E+02 -1.571560E-09 -2.730504E-08  1.520648E-09
        10   2 -1.911753E-01 -1.911753E-01  9.723030E+02 -8.349005E-10 -2.936733E-08  2.937265E-08
        10   3 -1.911753E-01 -1.911753E-01  9.723030E+02  7.902027E-10 -4.276362E-09  4.280947E-09
        10   4 -1.911753E-01 -1.911753E-01  9.723030E+02 -1.573409E-09 -1.521651E-09  2.730942E-08
        10   5 -1.911752E-01 -1.911753E-01  9.723030E+02 -2.558769E-08  5.486403E-08  3.737121E-08
        10   6 -1.911754E-01 -1.911754E-01  9.723030E+02 -3.690076E-08 -4.205386E-08  4.205461E-08
        10   7 -1.911753E-01 -1.911753E-01  9.723030E+02 -2.107942E-08  4.266112E-08 -4.266141E-08
        10   8 -1.911753E-01 -1.911752E-01  9.723030E+02 -2.558239E-08 -3.736052E-08 -5.487646E-08
        11   1 -1.911753E-01 -1.911753E-01  9.723030E+02 -1.572968E-09  1.520904E-09 -2.731221E-08
        11   2 -1.911753E-01 -1.911753E-01  9.723030E+02  7.903892E-10  4.277399E-09 -4.280754E-09
        11   3 -1.911753E-01 -1.911753E-01  9.723030E+02 -8.349734E-10  2.936902E-08 -2.937310E-08
        11   4 -1.911753E-01 -1.911753E-01  9.723030E+02 -1.571727E-09  2.730521E-08 -1.521797E-09
        11   5 -1.911753E-01 -1.911752E-01  9.723030E+02 -2.558209E-08  3.736264E-08  5.487791E-08
        11   6 -1.911753E-01 -1.911753E-01  9.723030E+02 -2.107960E-08 -4.265930E-08  4.266263E-08
        11   7 -1.911754E-01 -1.911754E-01  9.723030E+02 -3.690094E-08  4.205289E-08 -4.205529E-08
        11   8 -1.911752E-01 -1.911753E-01  9.723030E+02 -2.558782E-08 -5.486342E-08 -3.736994E-08
        12   1 -1.911753E-01 -1.911753E-01  9.723030E+02 -7.902670E-10 -4.276393E-09 -4.282188E-09
        12   2 -1.911753E-01 -1.911753E-01  9.723030E+02  1.572952E-09 -1.521545E-09 -2.731025E-08
        12   3 -1.911753E-01 -1.911753E-01  9.723030E+02  1.571349E-09 -2.730350E-08 -1.520916E-09
        12   4 -1.911753E-01 -1.911753E-01  9.723030E+02  8.348183E-10 -2.936754E-08 -2.937455E-08
        12   5 -1.911753E-01 -1.911753E-01  9.723030E+02  2.107924E-08  4.266103E-08  4.266267E-08
        12   6 -1.911753E-01 -1.911752E-01  9.723030E+02  2.558292E-08 -3.736188E-08  5.487792E-08
        12   7 -1.911752E-01 -1.911753E-01  9.723030E+02  2.558822E-08  5.486341E-08 -3.737009E-08
        12   8 -1.911754E-01 -1.911754E-01  9.723030E+02  3.690064E-08 -4.205140E-08 -4.205605E-08
        13   1 -1.911752E-01 -1.911752E-01  9.723030E+02 -3.213868E-08 -4.945466E-08 -4.945006E-08
        13   2 -1.911752E-01 -1.911753E-01  9.723030E+02 -2.177619E-08 -5.750941E-08 -2.708492E-08
        13   3 -1.911753E-01 -1.911752E-01  9.723030E+02 -2.176704E-08 -2.706200E-08 -5.751479E-08
        13   4 -1.911753E-01 -1.911753E-01  9.723030E+02 -5.618741E-09 -1.555738E-08 -1.556797E-08
        13   5 -1.911749E-01 -1.911749E-01  9.723030E+02 -2.003781E-08 -2.116865E-07 -2.117456E-07
        13   6 -1.911755E-01 -1.911755E-01  9.723030E+02 -2.504333E-08  1.839983E-07 -8.499560E-08
        13   7 -1.911755E-01 -1.911755E-01  9.723030E+02 -2.505873E-08 -8.502074E-08  1.840230E-07
        13   8 -1.911753E-01 -1.911753E-01  9.723030E+02 -3.698205E-08  1.702245E-07  1.702423E-07
        14   1 -1.911752E-01 -1.911753E-01  9.723030E+02  2.177676E-08  5.751104E-08 -2.708680E-08
        14   2 -1.911752E-01 -1.911752E-01  9.723030E+02  3.213837E-08  4.945348E-08 -4.944981E-08
        14   3 -1.911753E-01 -1.911753E-01  9.723030E+02  5.618401E-09  1.555865E-08 -1.556886E-08
        14   4 -1.911753E-01 -1.911752E-01  9.723030E+02  2.176755E-08  2.706093E-08 -5.751395E-08
        14   5 -1.911755E-01 -1.911755E-01  9.723030E+02  2.504339E-08 -1.839960E-07 -8.499467E-08
        14   6 -1.911749E-01 -1.911749E-01  9.723030E+02  2.003726E-08  2.116874E-07 -2.117447E-07
        14   7 -1.911753E-01 -1.911753E-01  9.723030E+02  3.698172E-08 -1.702252E-07  1.702426E-07
        14   8 -1.911755E-01 -1.911755E-01  9.723030E+02  2.505889E-08  8.502050E-08  1.840232E-07
        15   1 -1.911753E-01 -1.911752E-01  9.723030E+02  2.176750E-08 -2.706194E-08  5.751467E-08
        15   2 -1.911753E-01 -1.911753E-01  9.723030E+02  5.618201E-09 -1.555724E-08  1.556838E-08
        15   3 -1.911752E-01 -1.911752E-01  9.723030E+02  3.213831E-08 -4.945419E-08  4.944700E-08
        15   4 -1.911752E-01 -1.911753E-01  9.723030E+02  2.177686E-08 -5.750872E-08  2.708488E-08
        15   5 -1.911755E-01 -1.911755E-01  9.723030E+02  2.505830E-08 -8.502238E-08 -1.840249E-07
        15   6 -1.911753E-01 -1.911753E-01  9.723030E+02  3.698128E-08  1.702262E-07 -1.702439E-07
        15   7 -1.911749E-01 -1.911749E-01  9.723030E+02  2.003715E-08 -2.116885E-07  2.117456E-07
        15   8 -1.911755E-01 -1.911755E-01  9.723030E+02  2.504352E-08  1.839977E-07  8.499338E-08
        16   1 -1.911753E-01 -1.911753E-01  9.723030E+02 -5.618936E-09  1.555761E-08  1.556922E-08
        16   2 -1.911753E-01 -1.911752E-01  9.723030E+02 -2.176739E-08  2.706131E-08  5.751435E-08
        16   3 -1.911752E-01 -1.911753E-01  9.723030E+02 -2.177638E-08  5.751203E-08  2.708587E-08
        16   4 -1.911752E-01 -1.911752E-01  9.723030E+02 -3.213898E-08  4.945368E-08  4.944794E-08
        16   5 -1.911753E-01 -1.911753E-01  9.723030E+02 -3.698171E-08 -1.702269E-07 -1.702435E-07
        16   6 -1.911755E-01 -1.911755E-01  9.723030E+02 -2.505793E-08  8.502133E-08 -1.840231E-07
        16   7 -1.911755E-01 -1.911755E-01  9.723030E+02 -2.504301E-08 -1.839931E-07  8.499523E-08
        16   8 -1.911749E-01 -1.911749E-01  9.723030E+02 -2.003763E-08  2.116902E-07  2.117463E-07
        17   1 -1.911757E-01 -1.911757E-01  9.723030E+02 -3.891395E-08  2.155136E-07  2.155628E-07
        17   2 -1.911754E-01 -1.911753E-01  9.723030E+02 -2.137694E-08  1.447252E-07 -9.721564E-09
        17   3 -1.911753E-01 -1.911754E-01  9.723030E+02 -2.135638E-08 -9.697775E-09  1.447636E-07
        17   4 -1.911754E-01 -1.911754E-01  9.723030E+02 -1.750878E-08 -1.825687E-08 -1.823644E-08
        17   5 -1.911760E-01 -1.911760E-01  9.723030E+02  2.595717E-07  5.249288E-07  5.249792E-07
        17   6 -1.911749E-01 -1.911750E-01  9.723030E+02  2.215893E-07 -6.880522E-07  4.828744E-07
        17   7 -1.911750E-01 -1.911749E-01  9.723030E+02  2.215622E-07  4.827650E-07 -6.882335E-07
        17   8 -1.911753E-01 -1.911753E-01  9.723030E+02  1.640944E-07 -4.600413E-07 -4.600680E-07
        18   1 -1.911754E-01 -1.911753E-01  9.723030E+02  2.137726E-08 -1.447239E-07 -9.722699E-09
        18   2 -1.911757E-01 -1.911757E-01  9.723030E+02  3.891412E-08 -2.155117E-07  2.155663E-07
        18   3 -1.911754E-01 -1.911754E-01  9.723030E+02  1.750901E-08  1.825464E-08 -1.823535E-08
        18   4 -1.911753E-01 -1.911754E-01  9.723030E+02  2.135681E-08  9.696534E-09  1.447654E-07
        18   5 -1.911749E-01 -1.911750E-01  9.723030E+02 -2.215897E-07  6.880537E-07  4.828720E-07
        18   6 -1.911760E-01 -1.911760E-01  9.723030E+02 -2.595716E-07 -5.249297E-07  5.249776E-07
        18   7 -1.911753E-01 -1.911753E-01  9.723030E+02 -1.640951E-07  4.600437E-07 -4.600676E-07
        18   8 -1.911750E-01 -1.911749E-01  9.723030E+02 -2.215625E-07 -4.827620E-07 -6.882279E-07
        19   1 -1.911753E-01 -1.911754E-01  9.723030E+02  2.135780E-08 -9.696105E-09 -1.447670E-07
        19   2 -1.911754E-01 -1.911754E-01  9.723030E+02  1.750927E-08 -1.825487E-08  1.823544E-08
        19   3 -1.911757E-01 -1.911757E-01  9.723030E+02  3.891415E-08  2.155120E-07 -2.155654E-07
        19   4 -1.911754E-01 -1.911753E-01  9.723030E+02  2.137687E-08  1.447244E-07  9.723970E-09
        19   5 -1.911750E-01 -1.911749E-01  9.723030E+02 -2.215624E-07  4.827656E-07  6.882305E-07
        19   6 -1.911753E-01 -1.911753E-01  9.723030E+02 -1.640953E-07 -4.600426E-07  4.600650E-07
        19   7 -1.911760E-01 -1.911760E-01  9.723030E+02 -2.595716E-07  5.249296E-07 -5.249808E-07
        19   8 -1.911749E-01 -1.911750E-01  9.723030E+02 -2.215898E-07 -6.880517E-07 -4.828706E-07
        20   1 -1.911754E-01 -1.911754E-01  9.723030E+02 -1.750945E-08  1.825616E-08  1.823582E-08
        20   2 -1.911753E-01 -1.911754E-01  9.723030E+02 -2.135743E-08  9.699014E-09 -1.447646E-07
        20   3 -1.911754E-01 -1.911753E-01  9.723030E+02 -2.137711E-08 -1.447253E-07  9.722248E-09
        20   4 -1.911757E-01 -1.911757E-01  9.723030E+02 -3.891440E-08 -2.155125E-07 -2.155651E-07
        20   5 -1.911753E-01 -1.911753E-01  9.723030E+02  1.640948E-07  4.600448E-07  4.600660E-07
        20   6 -1.911750E-01 -1.911749E-01  9.723030E+02  2.215622E-07 -4.827637E-07  6.882330E-07
        20   7 -1.911749E-01 -1.911750E-01  9.723030E+02  2.215897E-07  6.880527E-07 -4.828738E-07
        20   8 -1.911760E-01 -1.911760E-01  9.723030E+02  2.595719E-07 -5.249272E-07 -5.249774E-07
        21   1 -1.911745E-01 -1.911745E-01  9.723030E+02 -2.538431E-07 -2.472549E-07 -2.471333E-07