
 displacements (vx,vy,vz) for set NALL and time  0.1000000E+01

         1  0.000000E+00  0.000000E+00  0.000000E+00
         2  0.000000E+00  0.000000E+00  0.000000E+00
         3  0.000000E+00  0.000000E+00  0.000000E+00
         4  0.000000E+00  0.000000E+00  0.000000E+00
         5  7.142521E-07  7.142521E-07  3.792099E-05
         6 -7.142521E-07  7.142521E-07  3.792099E-05
         7 -7.142521E-07 -7.142521E-07  3.792099E-05
         8  7.142521E-07 -7.142521E-07  3.792099E-05
         9  0.000000E+00  0.000000E+00  0.000000E+00
        10  0.000000E+00  0.000000E+00  0.000000E+00
        11  0.000000E+00  0.000000E+00  0.000000E+00
        12  0.000000E+00  0.000000E+00  0.000000E+00
        13  0.000000E+00  0.000000E+00  0.000000E+00
        14  0.000000E+00  0.000000E+00  0.000000E+00
        15  0.000000E+00  0.000000E+00  0.000000E+00
        16  0.000000E+00  0.000000E+00  0.000000E+00
        17  0.000000E+00  0.000000E+00  0.000000E+00
        18  0.000000E+00  0.000000E+00  0.000000E+00
        19  0.000000E+00  0.000000E+00  0.000000E+00
        20  0.000000E+00  0.000000E+00  0.000000E+00
        21  3.571268E-07  7.142819E-07  3.792103E-05
        22  1.391535E-17  7.143130E-07  3.792105E-05
        23 -3.571268E-07  7.142819E-07  3.792103E-05
        24 -7.142819E-07  3.571268E-07  3.792103E-05
        25 -7.143130E-07  5.104706E-17  3.792105E-05
        26 -7.142819E-07 -3.571268E-07  3.792103E-05
        27 -3.571268E-07 -7.142819E-07  3.792103E-05
        28  1.350889E-17 -7.143130E-07  3.792105E-05
        29  3.571268E-07 -7.142819E-07  3.792103E-05
        30  7.142819E-07 -3.571268E-07  3.792103E-05
        31  7.143130E-07  5.064079E-17  3.792105E-05
        32  7.142819E-07  3.571268E-07  3.792103E-05
        33 -7.927071E-07  7.927071E-07  2.299707E-06
        34 -5.945158E-07  5.945158E-07  4.572151E-06
        35 -7.291218E-07  7.291218E-07  6.979568E-06
        36 -6.908846E-07  6.908846E-07  9.340535E-06
        37 -7.173129E-07  7.173129E-07  1.173259E-05
        38 -7.089801E-07  7.089801E-07  1.411082E-05
        39 -7.153891E-07  7.153891E-07  1.649275E-05
        40 -7.128226E-07  7.128226E-07  1.887285E-05
        41 -7.145498E-07  7.145498E-07  2.125448E-05
        42 -7.138851E-07  7.138851E-07  2.363527E-05
        43 -7.143804E-07  7.143804E-07  2.601629E-05
        44 -7.141654E-07  7.141654E-07  2.839717E-05
        45 -7.143099E-07  7.143099E-07  3.077818E-05
        46 -7.142448E-07  7.142448E-07  3.315912E-05
        47 -7.143001E-07  7.143001E-07  3.554007E-05
        48  7.143001E-07  7.143001E-07  3.554007E-05
        49  7.142448E-07  7.142448E-07  3.315912E-05
        50  7.143099E-07  7.143099E-07  3.077818E-05
        51  7.141654E-07  7.141654E-07  2.839717E-05
        52  7.143804E-07  7.143804E-07  2.601629E-05
        53  7.138851E-07  7.138851E-07  2.363527E-05
        54  7.145498E-07  7.145498E-07  2.125448E-05
        55  7.128226E-07  7.128226E-07  1.887285E-05
        56  7.153891E-07  7.153891E-07  1.649275E-05
        57  7.089801E-07  7.089801E-07  1.411082E-05
        58  7.173129E-07  7.173129E-07  1.173259E-05
        59  6.908846E-07  6.908846E-07  9.340535E-06
        60  7.291218E-07  7.291218E-07  6.979568E-06
        61  5.945158E-07  5.945158E-07  4.572151E-06
        62  7.927071E-07  7.927071E-07  2.299707E-06
        63 -7.927071E-07 -7.927071E-07  2.299707E-06
        64 -5.945158E-07 -5.945158E-07  4.572151E-06
        65 -7.291218E-07 -7.291218E-07  6.979568E-06
        66 -6.908846E-07 -6.908846E-07  9.340535E-06
        67 -7.173129E-07 -7.173129E-07  1.173259E-05
        68 -7.089801E-07 -7.089801E-07  1.411082E-05
        69 -7.153891E-07 -7.153891E-07  1.649275E-05
        70 -7.128226E-07 -7.128226E-07  1.887285E-05
        71 -7.145498E-07 -7.145498E-07  2.125448E-05
        72 -7.138851E-07 -7.138851E-07  2.363527E-05
        73 -7.143804E-07 -7.143804E-07  2.601629E-05
        74 -7.141654E-07 -7.141654E-07  2.839717E-05
        75 -7.143099E-07 -7.143099E-07  3.077818E-05
        76 -7.142448E-07 -7.142448E-07  3.315912E-05
        77 -7.143001E-07 -7.143001E-07  3.554007E-05
        78  7.927071E-07 -7.927071E-07  2.299707E-06
        79  5.945158E-07 -5.945158E-07  4.572151E-06
        80  7.291218E-07 -7.291218E-07  6.979568E-06
        81  6.908846E-07 -6.908846E-07  9.340535E-06
        82  7.173129E-07 -7.173129E-07  1.173259E-05
        83  7.089801E-07 -7.089801E-07  1.411082E-05
        84  7.153891E-07 -7.153891E-07  1.649275E-05
        85  7.128226E-07 -7.128226E-07  1.887285E-05
        86  7.145498E-07 -7.145498E-07  2.125448E-05
        87  7.138851E-07 -7.138851E-07  2.363527E-05
        88  7.143804E-07 -7.143804E-07  2.601629E-05
        89  7.141654E-07 -7.141654E-07  2.839717E-05
        90  7.143099E-07 -7.143099E-07  3.077818E-05
        91  7.142448E-07 -7.142448E-07  3.315912E-05
        92  7.143001E-07 -7.143001E-07  3.554007E-05
        93  0.000000E+00  0.000000E+00  0.000000E+00
        94  0.000000E+00  0.000000E+00  0.000000E+00
        95  0.000000E+00  0.000000E+00  0.000000E+00
        96  0.000000E+00  0.000000E+00  0.000000E+00
        97  0.000000E+00  0.000000E+00  0.000000E+00
        98  1.382632E-17  3.571537E-07  3.792103E-05
        99  3.571537E-07  5.076572E-17  3.792103E-05
       100  1.371205E-17  5.086475E-17  3.792101E-05
       101 -3.571537E-07  5.095872E-17  3.792103E-05
       102  1.360217E-17 -3.571537E-07  3.792103E-05
       103  6.856711E-20  7.934217E-07  2.184186E-06
       104  2.995231E-07  6.075428E-07  4.591119E-06
       105  2.879052E-19  6.231922E-07  4.624132E-06
       106 -2.995231E-07  6.075428E-07  4.591119E-06
       107  6.167994E-19  7.163197E-07  6.969505E-06
       108  3.440899E-07  7.007237E-07  9.348304E-06
       109  1.067764E-18  7.100266E-07  9.354523E-06
       110 -3.440899E-07  7.007237E-07  9.348304E-06
       111  1.619540E-18  7.121122E-07  1.172923E-05
       112  3.547399E-07  7.125823E-07  1.411171E-05
       113  2.293997E-18  7.163903E-07  1.411346E-05
       114 -3.547399E-07  7.125823E-07  1.411171E-05
       115  3.079104E-18  7.135820E-07  1.649228E-05
       116  3.563149E-07  7.140465E-07  1.887344E-05
       117  3.969091E-18  7.152248E-07  1.887385E-05
       118 -3.563149E-07  7.140465E-07  1.887344E-05
       119  4.934294E-18  7.140241E-07  2.125419E-05
       120  3.569667E-07  7.142387E-07  2.363536E-05
       121  5.971687E-18  7.146108E-07  2.363551E-05
       122 -3.569667E-07  7.142387E-07  2.363536E-05
       123  7.153605E-18  7.142223E-07  2.601624E-05
       124  3.570748E-07  7.142744E-07  2.839723E-05
       125  8.450847E-18  7.143798E-07  2.839726E-05
       126 -3.570748E-07  7.142744E-07  2.839723E-05
       127  9.801661E-18  7.142621E-07  3.077816E-05
       128  3.571243E-07  7.142820E-07  3.315913E-05
       129  1.113201E-17  7.143202E-07  3.315914E-05
       130 -3.571243E-07  7.142820E-07  3.315913E-05
       131  1.251208E-17  7.142757E-07  3.554007E-05
       132 -7.934217E-07  2.236445E-19  2.184186E-06
       133 -6.075428E-07  2.995231E-07  4.591119E-06
       134 -6.231922E-07  1.100142E-18  4.624132E-06
       135 -6.075428E-07 -2.995231E-07  4.591119E-06
       136 -7.163197E-07  2.425343E-18  6.969505E-06
       137 -7.007237E-07  3.440899E-07  9.348304E-06
       138 -7.100266E-07  4.251417E-18  9.354523E-06
       139 -7.007237E-07 -3.440899E-07  9.348304E-06
       140 -7.121122E-07  6.482608E-18  1.172923E-05
       141 -7.125823E-07  3.547399E-07  1.411171E-05
       142 -7.163903E-07  9.104374E-18  1.411346E-05
       143 -7.125823E-07 -3.547399E-07  1.411171E-05
       144 -7.135820E-07  1.207107E-17  1.649228E-05
       145 -7.140465E-07  3.563149E-07  1.887344E-05
       146 -7.152248E-07  1.538003E-17  1.887385E-05
       147 -7.140465E-07 -3.563149E-07  1.887344E-05
       148 -7.140241E-07  1.896113E-17  2.125419E-05
       149 -7.142387E-07  3.569667E-07  2.363536E-05
       150 -7.146108E-07  2.287918E-17  2.363551E-05
       151 -7.142387E-07 -3.569667E-07  2.363536E-05
       152 -7.142223E-07  2.705087E-17  2.601624E-05
       153 -7.142744E-07  3.570748E-07  2.839723E-05
       154 -7.143798E-07  3.153631E-17  2.839726E-05
       155 -7.142744E-07 -3.570748E-07  2.839723E-05
       156 -7.142621E-07  3.620960E-17  3.077816E-05
       157 -7.142820E-07  3.571243E-07  3.315913E-05
       158 -7.143202E-07  4.110890E-17  3.315914E-05
       159 -7.142820E-07 -3.571243E-07  3.315913E-05
       160 -7.142757E-07  4.606736E-17  3.554007E-05
       161  9.084472E-21 -7.934217E-07  2.184186E-06
       162 -2.995231E-07 -6.075428E-07  4.591119E-06
       163  1.706507E-19 -6.231922E-07  4.624132E-06
       164  2.995231E-07 -6.075428E-07  4.591119E-06
       165  4.407935E-19 -7.163197E-07  6.969505E-06
       166 -3.440899E-07 -7.007237E-07  9.348304E-06
       167  8.341846E-19 -7.100266E-07  9.354523E-06
       168  3.440899E-07 -7.007237E-07  9.348304E-06
       169  1.358424E-18 -7.121122E-07  1.172923E-05
       170 -3.547399E-07 -7.125823E-07  1.411171E-05
       171  2.000004E-18 -7.163903E-07  1.411346E-05
       172  3.547399E-07 -7.125823E-07  1.411171E-05
       173  2.761470E-18 -7.135820E-07  1.649228E-05
       174 -3.563149E-07 -7.140465E-07  1.887344E-05
       175  3.629113E-18 -7.152248E-07  1.887385E-05
       176  3.563149E-07 -7.140465E-07  1.887344E-05
       177  4.576346E-18 -7.140241E-07  2.125419E-05
       178 -3.569667E-07 -7.142387E-07  2.363536E-05
       179  5.620562E-18 -7.146108E-07  2.363551E-05
       180  3.569667E-07 -7.142387E-07  2.363536E-05
       181  6.774622E-18 -7.142223E-07  2.601624E-05
       182 -3.570748E-07 -7.142744E-07  2.839723E-05
       183  8.015261E-18 -7.143798E-07  2.839726E-05
       184  3.570748E-07 -7.142744E-07  2.839723E-05
       185  9.354632E-18 -7.142621E-07  3.077816E-05
       186 -3.571243E-07 -7.142820E-07  3.315913E-05
       187  1.070692E-17 -7.143202E-07  3.315914E-05
       188  3.571243E-07 -7.142820E-07  3.315913E-05
       189  1.211315E-17 -7.142757E-07  3.554007E-05
       190  7.934217E-07  1.655817E-19  2.184186E-06
       191  6.075428E-07 -2.995231E-07  4.591119E-06
       192  6.231922E-07  9.812976E-19  4.624132E-06
       193  6.075428E-07  2.995231E-07  4.591119E-06
       194  7.163197E-07  2.246216E-18  6.969505E-06
       195  7.007237E-07 -3.440899E-07  9.348304E-06
       196  7.100266E-07  4.025471E-18  9.354523E-06
       197  7.007237E-07  3.440899E-07  9.348304E-06
       198  7.121122E-07  6.217652E-18  1.172923E-05
       199  7.125823E-07 -3.547399E-07  1.411171E-05
       200  7.163903E-07  8.812398E-18  1.411346E-05
       201  7.125823E-07  3.547399E-07  1.411171E-05
       202  7.135820E-07  1.174672E-17  1.649228E-05
       203  7.140465E-07 -3.563149E-07  1.887344E-05
       204  7.152248E-07  1.500667E-17  1.887385E-05
       205  7.140465E-07  3.563149E-07  1.887344E-05
       206  7.140241E-07  1.861564E-17  2.125419E-05
       207  7.142387E-07 -3.569667E-07  2.363536E-05
       208  7.146108E-07  2.250604E-17  2.363551E-05
       209  7.142387E-07  3.569667E-07  2.363536E-05
       210  7.142223E-07  2.666068E-17  2.601624E-05
       211  7.142744E-07 -3.570748E-07  2.839723E-05
       212  7.143798E-07  3.108600E-17  2.839726E-05
       213  7.142744E-07  3.570748E-07  2.839723E-05
       214  7.142621E-07  3.580525E-17  3.077816E-05
       215  7.142820E-07 -3.571243E-07  3.315913E-05
       216  7.143202E-07  4.067283E-17  3.315914E-05
       217  7.142820E-07  3.571243E-07  3.315913E-05
       218  7.142757E-07  4.565846E-17  3.554007E-05
       219  5.610889E-20  2.680400E-19  2.062651E-06
       220  2.746165E-19  3.119938E-07  4.647321E-06
       221  3.119938E-07  1.070109E-18  4.647321E-06
       222  2.476606E-19  1.108885E-18  4.683297E-06
       223 -3.119938E-07  1.128711E-18  4.647321E-06
       224  2.149875E-19 -3.119938E-07  4.647321E-06
       225  5.433887E-19  2.405931E-18  6.959953E-06
       226  1.025360E-18  3.540337E-07  9.359005E-06
       227  3.540337E-07  4.128121E-18  9.359005E-06
       228  9.736230E-19  4.203070E-18  9.362604E-06
       229 -3.540337E-07  4.241782E-18  9.359005E-06
       230  9.087075E-19 -3.540337E-07  9.359005E-06
       231  1.505762E-18  6.410130E-18  1.172961E-05
       232  2.237778E-18  3.582895E-07  1.411241E-05
       233  3.582895E-07  8.922332E-18  1.411241E-05
       234  2.172224E-18  9.008692E-18  1.411195E-05
       235 -3.582895E-07  9.069255E-18  1.411241E-05
       236  2.091460E-18 -3.582895E-07  1.411241E-05
       237  2.930369E-18  1.195782E-17  1.649307E-05
       238  3.891630E-18  3.575644E-07  1.887349E-05
       239  3.575644E-07  1.513221E-17  1.887349E-05
       240  3.808260E-18  1.523761E-17  1.887296E-05
       241 -3.575644E-07  1.531330E-17  1.887349E-05
       242  3.724616E-18 -3.575644E-07  1.887349E-05
       243  4.769960E-18  1.883173E-17  2.125444E-05
       244  5.895981E-18  3.573163E-07  2.363530E-05
       245  3.573163E-07  2.263178E-17  2.363530E-05
       246  5.817872E-18  2.272992E-17  2.363512E-05
       247 -3.573163E-07  2.281794E-17  2.363530E-05
       248  5.722956E-18 -3.573163E-07  2.363530E-05
       249  6.976759E-18  2.689469E-17  2.601633E-05
       250  8.358506E-18  3.571868E-07  2.839722E-05
       251  3.571868E-07  3.122248E-17  2.839722E-05
       252  8.263865E-18  3.133782E-17  2.839715E-05
       253 -3.571868E-07  3.144541E-17  2.839722E-05
       254  8.139649E-18 -3.571868E-07  2.839722E-05
       255  9.578037E-18  3.603231E-17  3.077818E-05
       256  1.104333E-17  3.571616E-07  3.315912E-05
       257  3.571616E-07  4.078675E-17  3.315912E-05
       258  1.094107E-17  4.091332E-17  3.315910E-05
       259 -3.571616E-07  4.101842E-17  3.315912E-05
       260  1.083107E-17 -3.571616E-07  3.315912E-05
       261  1.230627E-17  4.587098E-17  3.554008E-05

 stresses (elem, integ.pnt.,sxx,syy,szz,sxy,sxz,syz) for set EALL and time  0.1000000E+01

         1   1  1.756278E-01  1.756278E-01  1.045677E+00 -1.018150E-03  9.660344E-02  9.660344E-02
         1   2  1.554748E-01  1.564584E-01  1.000226E+00 -5.135446E-04  1.667844E-02  9.601595E-02
         1   3  1.564584E-01  1.554748E-01  1.000226E+00 -5.135446E-04  9.601595E-02  1.667844E-02
         1   4  1.365498E-01  1.365498E-01  9.538715E-01 -2.476604E-04  1.610868E-02  1.610868E-02
         1   5 -7.593084E-02 -7.593084E-02  9.399483E-01  2.522752E-03 -4.477637E-02 -4.477637E-02
         1   6 -5.519349E-02 -5.615104E-02  9.988324E-01  2.091755E-03 -1.564122E-02 -4.258458E-02
         1   7 -5.615104E-02 -5.519349E-02  9.988324E-01  2.091755E-03 -4.258458E-02 -1.564122E-02
         1   8 -3.105546E-02 -3.105546E-02  1.062387E+00  7.698382E-04 -1.528233E-02 -1.528233E-02
         2   1  1.554748E-01  1.564584E-01  1.000226E+00  5.135446E-04 -1.667844E-02  9.601595E-02
         2   2  1.756278E-01  1.756278E-01  1.045677E+00  1.018150E-03 -9.660344E-02  9.660344E-02
         2   3  1.365498E-01  1.365498E-01  9.538715E-01  2.476604E-04 -1.610868E-02  1.610868E-02
         2   4  1.564584E-01  1.554748E-01  1.000226E+00  5.135446E-04 -9.601595E-02  1.667844E-02
         2   5 -5.519349E-02 -5.615104E-02  9.988324E-01 -2.091755E-03  1.564122E-02 -4.258458E-02
         2   6 -7.593084E-02 -7.593084E-02  9.399483E-01 -2.522752E-03  4.477637E-02 -4.477637E-02
         2   7 -3.105546E-02 -3.105546E-02  1.062387E+00 -7.698382E-04  1.528233E-02 -1.528233E-02
         2   8 -5.615104E-02 -5.519349E-02  9.988324E-01 -2.091755E-03  4.258458E-02 -1.564122E-02
         3   1  1.564584E-01  1.554748E-01  1.000226E+00  5.135446E-04  9.601595E-02 -1.667844E-02
         3   2  1.365498E-01  1.365498E-01  9.538715E-01  2.476604E-04  1.610868E-02 -1.610868E-02
         3   3  1.756278E-01  1.756278E-01  1.045677E+00  1.018150E-03  9.660344E-02 -9.660344E-02
         3   4  1.554748E-01  1.564584E-01  1.000226E+00  5.135446E-04  1.667844E-02 -9.601595E-02
         3   5 -5.615104E-02 -5.519349E-02  9.988324E-01 -2.091755E-03 -4.258458E-02  1.564122E-02
         3   6 -3.105546E-02 -3.105546E-02  1.062387E+00 -7.698382E-04 -1.528233E-02  1.528233E-02
         3   7 -7.593084E-02 -7.593084E-02  9.399483E-01 -2.522752E-03 -4.477637E-02  4.477637E-02
         3   8 -5.519349E-02 -5.615104E-02  9.988324E-01 -2.091755E-03 -1.564122E-02  4.258458E-02
         4   1  1.365498E-01  1.365498E-01  9.538715E-01 -2.476604E-04 -1.610868E-02 -1.610868E-02
         4   2  1.564584E-01  1.554748E-01  1.000226E+00 -5.135446E-04 -9.601595E-02 -1.667844E-02
         4   3  1.554748E-01  1.564584E-01  1.000226E+00 -5.135446E-04 -1.667844E-02 -9.601595E-02
         4   4  1.756278E-01  1.756278E-01  1.045677E+00 -1.018150E-03 -9.660344E-02 -9.660344E-02
         4   5 -3.105546E-02 -3.105546E-02  1.062387E+00  7.698382E-04  1.528233E-02  1.528233E-02
         4   6 -5.615104E-02 -5.519349E-02  9.988324E-01  2.091755E-03  4.258458E-02  1.564122E-02
         4   7 -5.519349E-02 -5.615104E-02  9.988324E-01  2.091755E-03  1.564122E-02  4.258458E-02
         4   8 -7.593084E-02 -7.593084E-02  9.399483E-01  2.522752E-03  4.477637E-02  4.477637E-02
         5   1  3.755795E-02  3.755795E-02  1.024964E+00 -3.180963E-04  1.816654E-02  1.816654E-02
         5   2  2.379785E-02  2.458909E-02  9.998649E-01  2.636029E-04  9.189436E-03  1.526326E-02
         5   3  2.458909E-02  2.379785E-02  9.998649E-01  2.636029E-04  1.526326E-02  9.189436E-03
         5   4  1.329112E-02  1.329112E-02  9.753062E-01  3.192024E-06  8.642059E-03  8.642059E-03
         5   5 -1.313020E-02 -1.313020E-02  9.896771E-01 -9.055790E-04 -7.203332E-03 -7.203332E-03
         5   6 -7.045622E-03 -7.379186E-03  1.000269E+00 -5.434143E-04 -2.509182E-03 -4.695250E-03
         5   7 -7.379186E-03 -7.045622E-03  1.000269E+00 -5.434143E-04 -4.695250E-03 -2.509182E-03
         5   8 -1.594756E-03 -1.594756E-03  1.009785E+00 -2.378113E-04 -1.970706E-03 -1.970706E-03
         6   1  2.379785E-02  2.458909E-02  9.998649E-01 -2.636029E-04 -9.189436E-03  1.526326E-02
         6   2  3.755795E-02  3.755795E-02  1.024964E+00  3.180963E-04 -1.816654E-02  1.816654E-02
         6   3  1.329112E-02  1.329112E-02  9.753062E-01 -3.192024E-06 -8.642059E-03  8.642059E-03
         6   4  2.458909E-02  2.379785E-02  9.998649E-01 -2.636029E-04 -1.526326E-02  9.189436E-03
         6   5 -7.045622E-03 -7.379186E-03  1.000269E+00  5.434143E-04  2.509182E-03 -4.695250E-03
         6   6 -1.313020E-02 -1.313020E-02  9.896771E-01  9.055790E-04  7.203332E-03 -7.203332E-03
         6   7 -1.594756E-03 -1.594756E-03  1.009785E+00  2.378113E-04  1.970706E-03 -1.970706E-03
         6   8 -7.379186E-03 -7.045622E-03  1.000269E+00  5.434143E-04  4.695250E-03 -2.509182E-03
         7   1  2.458909E-02  2.379785E-02  9.998649E-01 -2.636029E-04  1.526326E-02 -9.189436E-03
         7   2  1.329112E-02  1.329112E-02  9.753062E-01 -3.192024E-06  8.642059E-03 -8.642059E-03
         7   3  3.755795E-02  3.755795E-02  1.024964E+00  3.180963E-04  1.816654E-02 -1.816654E-02
         7   4  2.379785E-02  2.458909E-02  9.998649E-01 -2.636029E-04  9.189436E-03 -1.526326E-02
         7   5 -7.379186E-03 -7.045622E-03  1.000269E+00  5.434143E-04 -4.695250E-03  2.509182E-03
         7   6 -1.594756E-03 -1.594756E-03  1.009785E+00  2.378113E-04 -1.970706E-03  1.970706E-03
         7   7 -1.313020E-02 -1.313020E-02  9.896771E-01  9.055790E-04 -7.203332E-03  7.203332E-03
         7   8 -7.045622E-03 -7.379186E-03  1.000269E+00  5.434143E-04 -2.509182E-03  4.695250E-03
         8   1  1.329112E-02  1.329112E-02  9.753062E-01  3.192024E-06 -8.642059E-03 -8.642059E-03
         8   2  2.458909E-02  2.379785E-02  9.998649E-01  2.636029E-04 -1.526326E-02 -9.189436E-03
         8   3  2.379785E-02  2.458909E-02  9.998649E-01  2.636029E-04 -9.189436E-03 -1.526326E-02
         8   4  3.755795E-02  3.755795E-02  1.024964E+00 -3.180963E-04 -1.816654E-02 -1.816654E-02
         8   5 -1.594756E-03 -1.594756E-03  1.009785E+00 -2.378113E-04  1.970706E-03  1.970706E-03
         8   6 -7.379186E-03 -7.045622E-03  1.000269E+00 -5.434143E-04  4.695250E-03  2.509182E-03
         8   7 -7.045622E-03 -7.379186E-03  1.000269E+00 -5.434143E-04  2.509182E-03  4.695250E-03
         8   8 -1.313020E-02 -1.313020E-02  9.896771E-01 -9.055790E-04  7.203332E-03  7.203332E-03
         9   1  4.749749E-03  4.749749E-03  1.004458E+00  1.274963E-03  3.817877E-03  3.817877E-03
         9   2  4.397346E-03  2.268967E-03  9.995660E-01  7.172638E-04  1.298667E-03  1.778840E-03
         9   3  2.268967E-03  4.397346E-03  9.995660E-01  7.172638E-04  1.778840E-03  1.298667E-03
         9   4  2.242688E-03  2.242688E-03  9.964095E-01  3.229859E-04  8.254281E-04  8.254281E-04
         9   5 -2.138601E-03 -2.138601E-03  9.980256E-01 -6.426442E-04 -1.380135E-03 -1.380135E-03
         9   6 -7.171011E-04 -4.292556E-04  1.000421E+00 -3.964543E-04 -5.200190E-04 -1.271056E-04
         9   7 -4.292556E-04 -7.171011E-04  1.000421E+00 -3.964543E-04 -1.271056E-04 -5.200190E-04
         9   8  3.406166E-04  3.406166E-04  1.001132E+00 -1.713885E-04 -1.158608E-04 -1.158608E-04
        10   1  4.397346E-03  2.268967E-03  9.995660E-01 -7.172638E-04 -1.298667E-03  1.778840E-03
        10   2  4.749749E-03  4.749749E-03  1.004458E+00 -1.274963E-03 -3.817877E-03  3.817877E-03
        10   3  2.242688E-03  2.242688E-03  9.964095E-01 -3.229859E-04 -8.254281E-04  8.254281E-04
        10   4  2.268967E-03  4.397346E-03  9.995660E-01 -7.172638E-04 -1.778840E-03  1.298667E-03
        10   5 -7.171011E-04 -4.292556E-04  1.000421E+00  3.964543E-04  5.200190E-04 -1.271056E-04
        10   6 -2.138601E-03 -2.138601E-03  9.980256E-01  6.426442E-04  1.380135E-03 -1.380135E-03
        10   7  3.406166E-04  3.406166E-04  1.001132E+00  1.713885E-04  1.158608E-04 -1.158608E-04
        10   8 -4.292556E-04 -7.171011E-04  1.000421E+00  3.964543E-04  1.271056E-04 -5.200190E-04
        11   1  2.268967E-03  4.397346E-03  9.995660E-01 -7.172638E-04  1.778840E-03 -1.298667E-03
        11   2  2.242688E-03  2.242688E-03  9.964095E-01 -3.229859E-04  8.254281E-04 -8.254281E-04
        11   3  4.749749E-03  4.749749E-03  1.004458E+00 -1.274963E-03  3.817877E-03 -3.817877E-03
        11   4  4.397346E-03  2.268967E-03  9.995660E-01 -7.172638E-04  1.298667E-03 -1.778840E-03
        11   5 -4.292556E-04 -7.171011E-04  1.000421E+00  3.964543E-04 -1.271056E-04  5.200190E-04
        11   6  3.406166E-04  3.406166E-04  1.001132E+00  1.713885E-04 -1.158608E-04  1.158608E-04
        11   7 -2.138601E-03 -2.138601E-03  9.980256E-01  6.426442E-04 -1.380135E-03  1.380135E-03
        11   8 -7.171011E-04 -4.292556E-04  1.000421E+00  3.964543E-04 -5.200190E-04  1.271056E-04
        12   1  2.242688E-03  2.242688E-03  9.964095E-01  3.229859E-04 -8.254281E-04 -8.254281E-04
        12   2  2.268967E-03  4.397346E-03  9.995660E-01  7.172638E-04 -1.778840E-03 -1.298667E-03
        12   3  4.397346E-03  2.268967E-03  9.995660E-01  7.172638E-04 -1.298667E-03 -1.778840E-03
        12   4  4.749749E-03  4.749749E-03  1.004458E+00  1.274963E-03 -3.817877E-03 -3.817877E-03
        12   5  3.406166E-04  3.406166E-04  1.001132E+00 -1.713885E-04  1.158608E-04  1.158608E-04
        12   6 -4.292556E-04 -7.171011E-04  1.000421E+00 -3.964543E-04  1.271056E-04  5.200190E-04
        12   7 -7.171011E-04 -4.292556E-04  1.000421E+00 -3.964543E-04  5.200190E-04  1.271056E-04
        12   8 -2.138601E-03 -2.138601E-03  9.980256E-01 -6.426442E-04  1.380135E-03  1.380135E-03
        13   1  1.281134E-03  1.281134E-03  1.000876E+00  4.089555E-04  6.130748E-04  6.130748E-04
        13   2  2.707118E-04  1.005098E-04  9.996778E-01  2.953243E-04  3.718706E-04 -1.884664E-04
        13   3  1.005098E-04  2.707118E-04  9.996778E-01  2.953243E-04 -1.884664E-04  3.718706E-04
        13   4 -1.776152E-04 -1.776152E-04  9.997682E-01  1.159200E-04  7.746300E-05  7.746300E-05
        13   5 -4.613348E-04 -4.613348E-04  9.996946E-01 -2.596798E-04 -3.017818E-04 -3.017818E-04
        13   6 -1.233678E-04  3.525708E-05  1.000182E+00 -1.620190E-04 -9.238323E-05  1.394724E-04
        13   7  3.525708E-05 -1.233678E-04  1.000182E+00 -1.620190E-04  1.394724E-04 -9.238323E-05
        13   8  5.333585E-05  5.333585E-05  9.999421E-01 -6.757010E-05  5.845666E-05  5.845666E-05
        14   1  2.707118E-04  1.005098E-04  9.996778E-01 -2.953243E-04 -3.718706E-04 -1.884664E-04
        14   2  1.281134E-03  1.281134E-03  1.000876E+00 -4.089555E-04 -6.130748E-04  6.130748E-04
        14   3 -1.776152E-04 -1.776152E-04  9.997682E-01 -1.159200E-04 -7.746300E-05  7.746300E-05
        14   4  1.005098E-04  2.707118E-04  9.996778E-01 -2.953243E-04  1.884664E-04  3.718706E-04
        14   5 -1.233678E-04  3.525708E-05  1.000182E+00  1.620190E-04  9.238323E-05  1.394724E-04
        14   6 -4.613348E-04 -4.613348E-04  9.996946E-01  2.596798E-04  3.017818E-04 -3.017818E-04
        14   7  5.333585E-05  5.333585E-05  9.999421E-01  6.757010E-05 -5.845666E-05  5.845666E-05
        14   8  3.525708E-05 -1.233678E-04  1.000182E+00  1.620190E-04 -1.394724E-04 -9.238323E-05
        15   1  1.005098E-04  2.707118E-04  9.996778E-01 -2.953243E-04 -1.884664E-04 -3.718706E-04
        15   2 -1.776152E-04 -1.776152E-04  9.997682E-01 -1.159200E-04  7.746300E-05 -7.746300E-05
        15   3  1.281134E-03  1.281134E-03  1.000876E+00 -4.089555E-04  6.130748E-04 -6.130748E-04
        15   4  2.707118E-04  1.005098E-04  9.996778E-01 -2.953243E-04  3.718706E-04  1.884664E-04
        15   5  3.525708E-05 -1.233678E-04  1.000182E+00  1.620190E-04  1.394724E-04  9.238323E-05
        15   6  5.333585E-05  5.333585E-05  9.999421E-01  6.757010E-05  5.845666E-05 -5.845666E-05
        15   7 -4.613348E-04 -4.613348E-04  9.996946E-01  2.596798E-04 -3.017818E-04  3.017818E-04
        15   8 -1.233678E-04  3.525708E-05  1.000182E+00  1.620190E-04 -9.238323E-05 -1.394724E-04
        16   1 -1.776152E-04 -1.776152E-04  9.997682E-01  1.159200E-04 -7.746300E-05 -7.746300E-05
        16   2  1.005098E-04  2.707118E-04  9.996778E-01  2.953243E-04  1.884664E-04 -3.718706E-04
        16   3  2.707118E-04  1.005098E-04  9.996778E-01  2.953243E-04 -3.718706E-04  1.884664E-04
        16   4  1.281134E-03  1.281134E-03  1.000876E+00  4.089555E-04 -6.130748E-04 -6.130748E-04
        16   5  5.333585E-05  5.333585E-05  9.999421E-01 -6.757010E-05 -5.845666E-05 -5.845666E-05
        16   6  3.525708E-05 -1.233678E-04  1.000182E+00 -1.620190E-04 -1.394724E-04  9.238323E-05
        16   7 -1.233678E-04  3.525708E-05  1.000182E+00 -1.620190E-04  9.238323E-05 -1.394724E-04
        16   8 -4.613348E-04 -4.613348E-04  9.996946E-01 -2.596798E-04  3.017818E-04  3.017818E-04
        17   1  1.608093E-04  1.608093E-04  1.000171E+00  1.839179E-04  2.061317E-04  2.061317E-04
        17   2  1.267832E-04 -7.481734E-05  9.998832E-01  1.099409E-04  4.694893E-05 -7.597729E-05
        17   3 -7.481734E-05  1.267832E-04  9.998832E-01  1.099409E-04 -7.597729E-05  4.694893E-05
        17   4  3.484304E-05  3.484304E-05  1.000062E+00  4.979560E-05 -5.687726E-05 -5.687726E-05
        17   5 -1.069259E-04 -1.069259E-04  9.999010E-01 -8.131210E-05 -8.586883E-05 -8.586883E-05
        17   6 -7.221772E-06  4.902882E-05  1.000068E+00 -5.008818E-05 -3.207242E-05  5.876352E-05
        17   7  4.902882E-05 -7.221772E-06  1.000068E+00 -5.008818E-05  5.876352E-05 -3.207242E-05
        17   8  3.167628E-05  3.167628E-05  9.999620E-01 -2.102978E-05  2.390658E-05  2.390658E-05
        18   1  1.267832E-04 -7.481734E-05  9.998832E-01 -1.099409E-04 -4.694893E-05 -7.597729E-05
        18   2  1.608093E-04  1.608093E-04  1.000171E+00 -1.839179E-04 -2.061317E-04  2.061317E-04
        18   3  3.484304E-05  3.484304E-05  1.000062E+00 -4.979560E-05  5.687726E-05 -5.687726E-05
        18   4 -7.481734E-05  1.267832E-04  9.998832E-01 -1.099409E-04  7.597729E-05  4.694893E-05
        18   5 -7.221772E-06  4.902882E-05  1.000068E+00  5.008818E-05  3.207242E-05  5.876352E-05
        18   6 -1.069259E-04 -1.069259E-04  9.999010E-01  8.131210E-05  8.586883E-05 -8.586883E-05
        18   7  3.167628E-05  3.167628E-05  9.999620E-01  2.102978E-05 -2.390658E-05  2.390658E-05
        18   8  4.902882E-05 -7.221772E-06  1.000068E+00  5.008818E-05 -5.876352E-05 -3.207242E-05
        19   1 -7.481734E-05  1.267832E-04  9.998832E-01 -1.099409E-04 -7.597729E-05 -4.694893E-05
        19   2  3.484304E-05  3.484304E-05  1.000062E+00 -4.979560E-05 -5.687726E-05  5.687726E-05
        19   3  1.608093E-04  1.608093E-04  1.000171E+00 -1.839179E-04  2.061317E-04 -2.061317E-04
        19   4  1.267832E-04 -7.481734E-05  9.998832E-01 -1.099409E-04  4.694893E-05  7.597729E-05
        19   5  4.902882E-05 -7.221772E-06  1.000068E+00  5.008818E-05  5.876352E-05  3.207242E-05
        19   6  3.167628E-05  3.167628E-05  9.999620E-01  2.102978E-05  2.390658E-05 -2.390658E-05
        19   7 -1.069259E-04 -1.069259E-04  9.999010E-01  8.131210E-05 -8.586883E-05  8.586883E-05
        19   8 -7.221772E-06  4.902882E-05  1.000068E+00  5.008818E-05 -3.207242E-05 -5.876352E-05
        20   1  3.484304E-05  3.484304E-05  1.000062E+00  4.979560E-05  5.687726E-05  5.687726E-05
        20   2 -7.481734E-05  1.267832E-04  9.998832E-01  1.099409E-04  7.597729E-05 -4.694893E-05
        20   3  1.267832E-04 -7.481734E-05  9.998832E-01  1.099409E-04 -4.694893E-05  7.597729E-05
        20   4  1.608093E-04  1.608093E-04  1.000171E+00  1.839179E-04 -2.061317E-04 -2.061317E-04
        20   5  3.167628E-05  3.167628E-05  9.999620E-01 -2.102978E-05 -2.390658E-05 -2.390658E-05
        20   6  4.902882E-05 -7.221772E-06  1.000068E+00 -5.008818E-05 -5.876352E-05  3.207242E-05
        20   7 -7.221772E-06  4.902882E-05  1.000068E+00 -5.008818E-05  3.207242E-05 -5.876352E-05
        20   8 -1.069259E-04 -1.069259E-04  9.999010E-01 -8.131210E-05  8.586883E-05  8.586883E-05
        21   1  8.376737E-05  8.376737E-05  1.000052E+00  4.454921E-05  4.043226E-05  4.043226E-05