
 displacements (vx,vy,vz) for set NALL and time  0.1000000E+01

         1  1.537638E-04  2.733636E-02  6.100749E-03
         2  3.642140E-14  2.741373E-02  6.104808E-03
         3  2.197934E-14  1.622644E-02  4.947886E-03
         4  1.909249E-04  1.612759E-02  4.943101E-03
         5  3.908192E-14  2.726234E-02  8.128425E-15
         6  3.904260E-14  2.733928E-02  1.998302E-16
         7  2.394274E-14  1.613770E-02  1.510540E-16
         8  2.405029E-14  1.604282E-02  6.998154E-15
         9  7.689958E-05  2.739399E-02  6.105190E-03
        10  2.894696E-14  2.153417E-02  5.557321E-03
        11  9.540268E-05  1.620178E-02  4.947748E-03
        12  1.738930E-04  2.144801E-02  5.553199E-03
        13  7.693710E-05  2.728022E-02  3.039875E-03
        14  3.774199E-14  2.735744E-02  3.044022E-03
        15  2.298829E-14  1.615714E-02  2.465966E-03
        16  9.552094E-05  1.606039E-02  2.461630E-03
        17  3.904213E-14  2.731993E-02  4.147751E-15
        18  3.121149E-14  2.144536E-02  1.843144E-16
        19  2.396694E-14  1.611505E-02  3.556112E-15
        20  3.130674E-14  2.135820E-02  7.632060E-15
        21  1.021405E-14  7.604186E-03  3.540096E-03
        22  2.243458E-04  7.483137E-03  3.532478E-03
        23  1.157349E-14  7.511529E-03  9.946877E-17
        24  1.169233E-14  7.399238E-03  5.277158E-15
        25  1.566533E-14  1.157298E-02  4.270601E-03
        26  1.121880E-04  7.570164E-03  3.539054E-03
        27  2.132615E-04  1.146897E-02  4.267077E-03
        28  1.092650E-14  7.531973E-03  1.761260E-03
        29  1.119197E-04  7.414999E-03  1.754859E-03
        30  1.732307E-14  1.146127E-02  1.219252E-16
        31  1.160157E-14  7.481641E-03  2.669143E-15
        32  1.747066E-14  1.135423E-02  6.208630E-15
        33  2.421545E-15  2.053114E-03  1.879985E-03
        34  2.250388E-04  1.919815E-03  1.854545E-03
        35  3.186064E-15  1.977931E-03  4.911436E-17
        36  3.295103E-15  1.854952E-03  2.936738E-15
        37  5.683651E-15  4.440861E-03  2.727150E-03
        38  1.114081E-04  2.028598E-03  1.866487E-03
        39  2.541806E-04  4.320069E-03  2.726438E-03
        40  2.869487E-15  1.970156E-03  9.298896E-04
        41  1.135544E-04  1.843352E-03  9.190454E-04
        42  6.756868E-15  4.297417E-03  7.291260E-17
        43  3.172376E-15  1.959608E-03  1.467229E-15
        44  6.968307E-15  4.172219E-03  4.163245E-15
        45  0.000000E+00  0.000000E+00  0.000000E+00
        46  0.000000E+00  0.000000E+00  0.000000E+00
        47  0.000000E+00  0.000000E+00  0.000000E+00
        48  0.000000E+00  0.000000E+00  0.000000E+00
        49  3.228102E-16  6.703382E-04  8.992385E-04
        50  0.000000E+00  0.000000E+00  0.000000E+00
        51  3.087054E-04  5.379759E-04  9.258947E-04
        52  0.000000E+00  0.000000E+00  0.000000E+00
        53  0.000000E+00  0.000000E+00  0.000000E+00
        54  8.096730E-16  4.797310E-04  2.171932E-17
        55  0.000000E+00  0.000000E+00  0.000000E+00
        56  1.112938E-15  3.481141E-04  1.434003E-15
        57 -1.537638E-04  2.733636E-02 -6.100749E-03
        58  4.151011E-14  2.741373E-02 -6.104808E-03
        59  2.571381E-14  1.622644E-02 -4.947886E-03
        60 -1.909249E-04  1.612759E-02 -4.943101E-03
        61 -7.693710E-05  2.728022E-02 -3.039875E-03
        62  4.028007E-14  2.735744E-02 -3.044022E-03
        63  2.485825E-14  1.615714E-02 -2.465966E-03
        64 -9.552094E-05  1.606039E-02 -2.461630E-03
        65 -7.689958E-05  2.739399E-02 -6.105190E-03
        66  3.333938E-14  2.153417E-02 -5.557321E-03
        67 -9.540268E-05  1.620178E-02 -4.947748E-03
        68 -1.738930E-04  2.144801E-02 -5.553199E-03
        69  1.264981E-14  7.604186E-03 -3.540096E-03
        70 -2.243458E-04  7.483137E-03 -3.532478E-03
        71  1.214163E-14  7.531973E-03 -1.761260E-03
        72 -1.119197E-04  7.414999E-03 -1.754859E-03
        73  1.873614E-14  1.157298E-02 -4.270601E-03
        74 -1.121880E-04  7.570164E-03 -3.539054E-03
        75 -2.132615E-04  1.146897E-02 -4.267077E-03
        76  3.599815E-15  2.053114E-03 -1.879985E-03
        77 -2.250388E-04  1.919815E-03 -1.854545E-03
        78  3.457898E-15  1.970156E-03 -9.298896E-04
        79 -1.135544E-04  1.843352E-03 -9.190454E-04
        80  7.485941E-15  4.440861E-03 -2.727150E-03
        81 -1.114081E-04  2.028598E-03 -1.866487E-03
        82 -2.541806E-04  4.320069E-03 -2.726438E-03
        83  0.000000E+00  0.000000E+00  0.000000E+00
        84  0.000000E+00  0.000000E+00  0.000000E+00
        85  0.000000E+00  0.000000E+00  0.000000E+00
        86  0.000000E+00  0.000000E+00  0.000000E+00
        87  8.951951E-16  6.703382E-04 -8.992385E-04
        88  0.000000E+00  0.000000E+00  0.000000E+00
        89 -3.087054E-04  5.379759E-04 -9.258947E-04
        90 -1.537638E-04  2.733636E-02  6.100749E-03
        91 -1.909249E-04  1.612759E-02  4.943101E-03
        92  3.910313E-14  2.726234E-02 -7.707022E-15
        93  2.402440E-14  1.604282E-02 -6.694704E-15
        94 -7.689958E-05  2.739399E-02  6.105190E-03
        95 -1.738930E-04  2.144801E-02  5.553199E-03
        96 -9.540268E-05  1.620178E-02  4.947748E-03
        97 -7.693710E-05  2.728022E-02  3.039875E-03
        98 -9.552094E-05  1.606039E-02  2.461630E-03
        99  3.906883E-14  2.731993E-02 -3.738800E-15
       100  3.129875E-14  2.135820E-02 -7.256159E-15
       101  2.395184E-14  1.611505E-02 -3.251522E-15
       102 -2.243458E-04  7.483137E-03  3.532478E-03
       103  1.167324E-14  7.399238E-03 -5.081458E-15
       104 -2.132615E-04  1.146897E-02  4.267077E-03
       105 -1.121880E-04  7.570164E-03  3.539054E-03
       106 -1.119197E-04  7.414999E-03  1.754859E-03
       107  1.744730E-14  1.135423E-02 -5.966258E-15
       108  1.159175E-14  7.481641E-03 -2.469132E-15
       109 -2.250388E-04  1.919815E-03  1.854545E-03
       110  3.283600E-15  1.854952E-03 -2.841467E-15
       111 -2.541806E-04  4.320069E-03  2.726438E-03
       112 -1.114081E-04  2.028598E-03  1.866487E-03
       113 -1.135544E-04  1.843352E-03  9.190454E-04
       114  6.950320E-15  4.172219E-03 -4.016094E-15
       115  3.166762E-15  1.959608E-03 -1.370587E-15
       116  0.000000E+00  0.000000E+00  0.000000E+00
       117  0.000000E+00  0.000000E+00  0.000000E+00
       118 -3.087054E-04  5.379759E-04  9.258947E-04
       119  0.000000E+00  0.000000E+00  0.000000E+00
       120  0.000000E+00  0.000000E+00  0.000000E+00
       121  1.095369E-15  3.481141E-04 -1.387188E-15
       122  0.000000E+00  0.000000E+00  0.000000E+00
       123  1.537638E-04  2.733636E-02 -6.100749E-03
       124  1.909249E-04  1.612759E-02 -4.943101E-03
       125  7.693710E-05  2.728022E-02 -3.039875E-03
       126  9.552094E-05  1.606039E-02 -2.461630E-03
       127  7.689958E-05  2.739399E-02 -6.105190E-03
       128  1.738930E-04  2.144801E-02 -5.553199E-03
       129  9.540268E-05  1.620178E-02 -4.947748E-03
       130  2.243458E-04  7.483137E-03 -3.532478E-03
       131  1.119197E-04  7.414999E-03 -1.754859E-03
       132  2.132615E-04  1.146897E-02 -4.267077E-03
       133  1.121880E-04  7.570164E-03 -3.539054E-03
       134  2.250388E-04  1.919815E-03 -1.854545E-03
       135  1.135544E-04  1.843352E-03 -9.190454E-04
       136  2.541806E-04  4.320069E-03 -2.726438E-03
       137  1.114081E-04  2.028598E-03 -1.866487E-03
       138  0.000000E+00  0.000000E+00  0.000000E+00
       139  0.000000E+00  0.000000E+00  0.000000E+00
       140  3.087054E-04  5.379759E-04 -9.258947E-04
       141  0.000000E+00  0.000000E+00  0.000000E+00
       142 -4.087404E-05  8.768820E-02  8.180549E-03
       143  1.038768E-13  8.759457E-02  8.155627E-03
       144  8.637582E-14  7.125000E-02  8.032921E-03
       145  4.886196E-05  7.124065E-02  8.027329E-03
       146  1.080982E-13  8.757620E-02  9.048751E-15
       147  1.078983E-13  8.755606E-02  2.270595E-16
       148  9.053710E-14  7.123069E-02  3.198383E-16
       149  9.064255E-14  7.120644E-02  9.057933E-15
       150 -1.867493E-05  8.760204E-02  8.172754E-03
       151  9.503652E-14  7.939197E-02  8.128469E-03
       152  2.368098E-05  7.126021E-02  8.032833E-03
       153  3.801963E-06  7.938210E-02  8.126471E-03
       154 -1.058202E-07  8.762113E-02  4.063520E-03
       155  1.059049E-13  8.757388E-02  4.068287E-03
       156  8.845235E-14  7.123574E-02  4.009105E-03
       157  1.949605E-05  7.122136E-02  4.006787E-03
       158  1.080097E-13  8.757124E-02  4.628072E-15
       159  9.929633E-14  7.937948E-02  3.235259E-16
       160  9.057598E-14  7.122205E-02  4.688090E-15
       161  9.925109E-14  7.937859E-02  9.020440E-15
       162  6.914532E-14  5.544373E-02  7.647922E-03
       163  7.642178E-05  5.541246E-02  7.644605E-03
       164  7.294631E-14  5.540276E-02  2.954218E-16
       165  7.300020E-14  5.536154E-02  9.000504E-15
       166  7.769384E-14  6.325141E-02  7.870853E-03
       167  3.838839E-05  5.543505E-02  7.648472E-03
       168  5.959481E-05  6.321621E-02  7.866425E-03
       169  7.105323E-14  5.541358E-02  3.815405E-03
       170  3.949403E-05  5.537671E-02  3.811093E-03
       171  8.178689E-14  6.322500E-02  2.724502E-16
       172  7.297375E-14  5.539212E-02  4.638824E-15
       173  8.177218E-14  6.319733E-02  9.040132E-15
       174  5.241228E-14  4.065646E-02  7.004198E-03
       175  1.164373E-04  4.059991E-02  7.000115E-03
       176  5.564613E-14  4.059967E-02  2.555668E-16
       177  5.569528E-14  4.054051E-02  8.726008E-15
       178  6.071651E-14  4.788943E-02  7.357591E-03
       179  5.817195E-05  4.064338E-02  7.004645E-03
       180  9.534613E-05  4.784052E-02  7.353449E-03
       181  5.403192E-14  4.061354E-02  3.494026E-03
       182  5.791486E-05  4.055585E-02  3.489997E-03
       183  6.427687E-14  4.784079E-02  2.821636E-16
       184  5.567118E-14  4.058452E-02  4.483865E-15
       185  6.430112E-14  4.779386E-02  8.931520E-15
       186  3.642139E-14  2.741373E-02  6.104808E-03
       187  1.537638E-04  2.733636E-02  6.100749E-03
       188  3.904260E-14  2.733928E-02  1.994932E-16
       189  3.908191E-14  2.726234E-02  8.128089E-15
       190  4.429071E-14  3.381154E-02  6.585965E-03
       191  7.689958E-05  2.739399E-02  6.105190E-03
       192  1.352299E-04  3.374360E-02  6.581783E-03
       193  3.774200E-14  2.735744E-02  3.044022E-03
       194  7.693710E-05  2.728022E-02  3.039875E-03
       195  4.721231E-14  3.374344E-02  2.412572E-16
       196  3.904213E-14  2.731993E-02  4.147414E-15
       197  4.726773E-14  3.367611E-02  8.487375E-15
       198  4.087404E-05  8.768820E-02 -8.180549E-03
       199  1.120347E-13  8.759457E-02 -8.155627E-03
       200  9.478594E-14  7.125000E-02 -8.032921E-03
       201 -4.886196E-05  7.124065E-02 -8.027329E-03
       202  1.058204E-07  8.762113E-02 -4.063520E-03
       203  1.099580E-13  8.757388E-02 -4.068287E-03
       204  9.265635E-14  7.123574E-02 -4.009105E-03
       205 -1.949605E-05  7.122136E-02 -4.006787E-03
       206  1.867493E-05  8.760204E-02 -8.172754E-03
       207  1.034367E-13  7.939197E-02 -8.128469E-03
       208 -2.368098E-05  7.126021E-02 -8.032833E-03
       209 -3.801963E-06  7.938210E-02 -8.126471E-03
       210  7.685015E-14  5.544373E-02 -7.647922E-03
       211 -7.642178E-05  5.541246E-02 -7.644605E-03
       212  7.488671E-14  5.541358E-02 -3.815405E-03
       213 -3.949403E-05  5.537671E-02 -3.811093E-03
       214  8.590842E-14  6.325141E-02 -7.870853E-03
       215 -3.838839E-05  5.543505E-02 -7.648472E-03
       216 -5.959481E-05  6.321621E-02 -7.866425E-03
       217  5.888119E-14  4.065646E-02 -7.004198E-03
       218 -1.164373E-04  4.059991E-02 -7.000115E-03
       219  5.727349E-14  4.061354E-02 -3.494026E-03
       220 -5.791486E-05  4.055585E-02 -3.489997E-03
       221  6.779299E-14  4.788943E-02 -7.357591E-03
       222 -5.817195E-05  4.064338E-02 -7.004645E-03
       223 -9.534612E-05  4.784052E-02 -7.353449E-03
       224  4.151012E-14  2.741373E-02 -6.104808E-03
       225 -1.537638E-04  2.733636E-02 -6.100749E-03
       226  4.028006E-14  2.735744E-02 -3.044022E-03
       227 -7.693710E-05  2.728022E-02 -3.039875E-03
       228  5.005434E-14  3.381154E-02 -6.585965E-03
       229 -7.689958E-05  2.739399E-02 -6.105190E-03
       230 -1.352299E-04  3.374360E-02 -6.581783E-03
       231  4.087404E-05  8.768820E-02  8.180549E-03
       232 -4.886196E-05  7.124065E-02  8.027329E-03
       233  1.078295E-13  8.757620E-02 -8.286885E-15
       234  9.062120E-14  7.120644E-02 -8.433250E-15
       235  1.867493E-05  8.760204E-02  8.172754E-03
       236 -3.801963E-06  7.938210E-02  8.126471E-03
       237 -2.368098E-05  7.126021E-02  8.032833E-03
       238  1.058204E-07  8.762113E-02  4.063520E-03
       239 -1.949605E-05  7.122136E-02  4.006787E-03
       240  1.078579E-13  8.757124E-02 -4.044971E-15
       241  9.925960E-14  7.937859E-02 -8.361832E-15
       242  9.059160E-14  7.122205E-02 -4.049082E-15
       243 -7.642178E-05  5.541246E-02  7.644605E-03
       244  7.297003E-14  5.536154E-02 -8.438643E-15
       245 -5.959481E-05  6.321621E-02  7.866425E-03
       246 -3.838839E-05  5.543505E-02  7.648472E-03
       247 -3.949403E-05  5.537671E-02  3.811093E-03
       248  8.175743E-14  6.319733E-02 -8.449523E-15
       249  7.294859E-14  5.539212E-02 -4.065919E-15
       250 -1.164373E-04  4.059991E-02  7.000115E-03
       251  5.569219E-14  4.054051E-02 -8.214573E-15
       252 -9.534612E-05  4.784052E-02  7.353449E-03
       253 -5.817195E-05  4.064338E-02  7.004645E-03
       254 -5.791486E-05  4.055585E-02  3.489997E-03
       255  6.427678E-14  4.779386E-02 -8.316797E-15
       256  5.565904E-14  4.058452E-02 -3.963353E-15
       257 -1.537638E-04  2.733636E-02  6.100749E-03
       258  3.910314E-14  2.726234E-02 -7.707358E-15
       259 -1.352299E-04  3.374360E-02  6.581783E-03
       260 -7.689958E-05  2.739399E-02  6.105190E-03
       261 -7.693710E-05  2.728022E-02  3.039875E-03
       262  4.724146E-14  3.367611E-02 -8.024722E-15
       263  3.906883E-14  2.731993E-02 -3.739137E-15
       264 -4.087404E-05  8.768820E-02 -8.180549E-03
       265  4.886196E-05  7.124065E-02 -8.027329E-03
       266 -1.058202E-07  8.762113E-02 -4.063520E-03
       267  1.949605E-05  7.122136E-02 -4.006787E-03
       268 -1.867493E-05  8.760204E-02 -8.172754E-03
       269  3.801963E-06  7.938210E-02 -8.126471E-03
       270  2.368098E-05  7.126021E-02 -8.032833E-03
       271  7.642178E-05  5.541246E-02 -7.644605E-03
       272  3.949403E-05  5.537671E-02 -3.811093E-03
       273  5.959481E-05  6.321621E-02 -7.866425E-03
       274  3.838839E-05  5.543505E-02 -7.648472E-03
       275  1.164373E-04  4.059991E-02 -7.000115E-03
       276  5.791486E-05  4.055585E-02 -3.489997E-03
       277  9.534613E-05  4.784052E-02 -7.353449E-03
       278  5.817195E-05  4.064338E-02 -7.004645E-03
       279  1.537638E-04  2.733636E-02 -6.100749E-03
       280  7.693710E-05  2.728022E-02 -3.039875E-03
       281  1.352299E-04  3.374360E-02 -6.581783E-03
       282  7.689958E-05  2.739399E-02 -6.105190E-03

 stresses (elem, integ.pnt.,sxx,syy,szz,sxy,sxz,syz) for set EALL and time  0.1000000E+01

         1   1 -3.387219E-01 -8.463111E-01  1.793546E+02 -1.110604E-01 -6.084438E-01  5.123252E+00
         1   2 -1.910183E-01 -5.049796E-01  1.795122E+02 -2.822825E-02 -5.096065E-01  4.372426E+00
         1   3  3.524637E-01  7.124904E-01  2.039049E+02  3.307813E-01 -2.332145E-01  6.345724E+00
         1   4  1.957830E-01  2.701376E-01  2.036036E+02 -7.949856E-02 -3.440140E-01  5.260619E+00
         1   5 -4.248985E-01 -9.343071E-01  4.768984E+01 -2.279001E-02  8.964012E-04  1.412715E+01
         1   6 -2.935309E-01 -6.365886E-01  4.783179E+01  2.082620E-02  2.745449E-02  1.237717E+01
         1   7  9.149775E-01  2.178606E+00  5.542306E+01  2.071010E-01  9.352001E-02  1.301863E+01
         1   8  7.956203E-01  1.871618E+00  5.527285E+01 -2.031827E-01  6.390607E-02  1.137503E+01
         2   1 -9.305718E-01 -2.032667E+00  2.217844E+02 -1.984034E-01 -9.440830E-01  4.379305E+00
         2   2 -5.139823E-01 -1.439305E+00  2.223555E+02 -1.278024E-01 -6.370507E-01  3.916632E+00
         2   3  2.793006E+00  5.928932E+00  2.472616E+02 -3.505696E-01  6.972185E-01  7.365021E+00
         2   4  2.128967E+00  5.080248E+00  2.458932E+02  8.342970E-01 -1.256670E-01  5.979167E+00
         2   5 -9.064967E-01 -2.186136E+00  5.887289E+01 -8.228630E-02 -7.925560E-02  1.475903E+01
         2   6 -6.784812E-01 -1.726038E+00  5.911277E+01 -1.177420E-03 -4.079530E-03  1.294503E+01
         2   7  6.335773E-01  1.118065E+00  6.621346E+01 -4.194321E-01  3.900586E-01  1.219339E+01
         2   8  1.920613E-01  3.051521E-01  6.555367E+01  7.654490E-01  1.624741E-01  1.046242E+01
         3   1 -3.595081E+00 -5.219654E+00  2.634006E+02 -6.669466E-01 -2.584881E+00  2.104559E+00
         3   2 -1.879872E+00 -3.745828E+00  2.665072E+02 -1.428076E-01 -1.202257E+00  2.246325E+00
         3   3  5.192555E+00  2.558566E-02  2.902416E+02  4.005751E+00  4.688713E+00  1.059130E+01
         3   4  3.784752E+00 -2.965041E+00  2.840861E+02 -2.442946E+00  2.266418E+00  8.477940E+00
         3   5 -2.681995E+00 -5.224761E+00  6.868815E+01 -6.531172E-01 -6.027382E-01  1.652112E+01
         3   6 -2.031277E+00 -4.587236E+00  6.991505E+01 -1.317937E-01 -2.029484E-01  1.512799E+01
         3   7  8.921614E+00  1.815252E+01  8.524642E+01  3.656555E+00  1.142863E+00  8.866881E+00
         3   8  9.030799E+00  1.828277E+01  8.428682E+01 -2.792196E+00  5.231277E-01  8.063880E+00
         4   1 -1.707693E+01 -1.452694E+01  3.009789E+02 -2.710488E+00 -1.258740E+01 -1.512051E-02
         4   2 -1.000642E+01 -9.910653E+00  3.154613E+02  9.427867E-01 -3.872227E+00 -8.610760E-01
         4   3  6.106266E+01  6.146674E+01  3.397994E+02 -7.670276E+00  3.131400E+01  1.069647E+01
         4   4  5.786123E+01  5.800960E+01  3.313874E+02  2.238243E+00  6.439205E+00  2.580801E+01
         4   5 -8.303026E+00 -1.148060E+01  7.636864E+01 -3.500012E+00 -3.457221E+00  1.881866E+01
         4   6 -6.573415E+00 -1.054313E+01  7.999888E+01  1.540168E-01 -1.145551E+00  1.805753E+01
         4   7  1.441984E+00 -1.754788E+01  7.548390E+01 -7.680881E+00  8.391490E+00 -7.891695E+00
         4   8  7.137578E-01 -1.808647E+01  7.327415E+01  2.227840E+00  1.702755E+00  7.387218E+00
         5   1  4.248985E-01  9.343071E-01 -4.768984E+01 -2.279001E-02 -8.964012E-04  1.412715E+01
         5   2  2.935309E-01  6.365886E-01 -4.783179E+01  2.082620E-02 -2.745449E-02  1.237717E+01
         5   3 -9.149775E-01 -2.178606E+00 -5.542306E+01  2.071010E-01 -9.352001E-02  1.301863E+01
         5   4 -7.956203E-01 -1.871618E+00 -5.527285E+01 -2.031827E-01 -6.390607E-02  1.137503E+01
         5   5  3.387219E-01  8.463111E-01 -1.793546E+02 -1.110604E-01  6.084439E-01  5.123252E+00
         5   6  1.910183E-01  5.049796E-01 -1.795122E+02 -2.822825E-02  5.096065E-01  4.372426E+00
         5   7 -3.524637E-01 -7.124904E-01 -2.039049E+02  3.307813E-01  2.332145E-01  6.345724E+00
         5   8 -1.957830E-01 -2.701376E-01 -2.036036E+02 -7.949856E-02  3.440140E-01  5.260619E+00
         6   1  9.064967E-01  2.186136E+00 -5.887289E+01 -8.228630E-02  7.925560E-02  1.475903E+01
         6   2  6.784812E-01  1.726038E+00 -5.911277E+01 -1.177420E-03  4.079530E-03  1.294503E+01
         6   3 -6.335773E-01 -1.118065E+00 -6.621346E+01 -4.194321E-01 -3.900586E-01  1.219339E+01
         6   4 -1.920613E-01 -3.051521E-01 -6.555367E+01  7.654490E-01 -1.624741E-01  1.046242E+01
         6   5  9.305718E-01  2.032667E+00 -2.217844E+02 -1.984034E-01  9.440830E-01  4.379305E+00
         6   6  5.139823E-01  1.439305E+00 -2.223555E+02 -1.278024E-01  6.370507E-01  3.916632E+00
         6   7 -2.793006E+00 -5.928932E+00 -2.472616E+02 -3.505696E-01 -6.972185E-01  7.365021E+00
         6   8 -2.128967E+00 -5.080248E+00 -2.458932E+02  8.342970E-01  1.256670E-01  5.979167E+00
         7   1  2.681995E+00  5.224761E+00 -6.868815E+01 -6.531172E-01  6.027382E-01  1.652112E+01
         7   2  2.031277E+00  4.587236E+00 -6.991505E+01 -1.317937E-01  2.029484E-01  1.512799E+01
         7   3 -8.921614E+00 -1.815252E+01 -8.524642E+01  3.656555E+00 -1.142863E+00  8.866881E+00
         7   4 -9.030799E+00 -1.828277E+01 -8.428682E+01 -2.792196E+00 -5.231277E-01  8.063880E+00
         7   5  3.595081E+00  5.219654E+00 -2.634006E+02 -6.669466E-01  2.584881E+00  2.104559E+00
         7   6  1.879872E+00  3.745828E+00 -2.665072E+02 -1.428076E-01  1.202257E+00  2.246325E+00
         7   7 -5.192555E+00 -2.558566E-02 -2.902416E+02  4.005751E+00 -4.688713E+00  1.059130E+01
         7   8 -3.784752E+00  2.965041E+00 -2.840861E+02 -2.442946E+00 -2.266418E+00  8.477940E+00
         8   1  8.303026E+00  1.148060E+01 -7.636864E+01 -3.500012E+00  3.457221E+00  1.881866E+01
         8   2  6.573415E+00  1.054313E+01 -7.999888E+01  1.540168E-01  1.145551E+00  1.805753E+01
         8   3 -1.441984E+00  1.754788E+01 -7.548390E+01 -7.680881E+00 -8.391490E+00 -7.891695E+00
         8   4 -7.137578E-01  1.808647E+01 -7.327415E+01  2.227840E+00 -1.702755E+00  7.387218E+00
         8   5  1.707693E+01  1.452694E+01 -3.009789E+02 -2.710488E+00  1.258740E+01 -1.512051E-02
         8   6  1.000642E+01  9.910653E+00 -3.154613E+02  9.427867E-01  3.872227E+00 -8.610760E-01
         8   7 -6.106266E+01 -6.146674E+01 -3.397994E+02 -7.670276E+00 -3.131400E+01  1.069647E+01
         8   8 -5.786123E+01 -5.800960E+01 -3.313874E+02  2.238243E+00 -6.439205E+00  2.580801E+01
         9   1 -1.910183E-01 -5.049796E-01  1.795122E+02  2.822825E-02  5.096065E-01  4.372426E+00
         9   2 -3.387219E-01 -8.463111E-01  1.793546E+02  1.110604E-01  6.084438E-01  5.123252E+00
         9   3  1.957830E-01  2.701376E-01  2.036036E+02  7.949856E-02  3.440140E-01  5.260619E+00
         9   4  3.524637E-01  7.124904E-01  2.039049E+02 -3.307813E-01  2.332145E-01  6.345724E+00
         9   5 -2.935309E-01 -6.365886E-01  4.783179E+01 -2.082620E-02 -2.745449E-02  1.237717E+01
         9   6 -4.248985E-01 -9.343071E-01  4.768984E+01  2.279001E-02 -8.964012E-04  1.412715E+01
         9   7  7.956203E-01  1.871618E+00  5.527285E+01  2.031827E-01 -6.390607E-02  1.137503E+01
         9   8  9.149775E-01  2.178606E+00  5.542306E+01 -2.071010E-01 -9.352001E-02  1.301863E+01
        10   1 -5.139823E-01 -1.439305E+00  2.223555E+02  1.278024E-01  6.370507E-01  3.916632E+00
        10   2 -9.305718E-01 -2.032667E+00  2.217844E+02  1.984034E-01  9.440830E-01  4.379305E+00
        10   3  2.128967E+00  5.080248E+00  2.458932E+02 -8.342970E-01  1.256670E-01  5.979167E+00
        10   4  2.793006E+00  5.928932E+00  2.472616E+02  3.505696E-01 -6.972185E-01  7.365021E+00
        10   5 -6.784812E-01 -1.726038E+00  5.911277E+01  1.177420E-03  4.079530E-03  1.294503E+01
        10   6 -9.064967E-01 -2.186136E+00  5.887289E+01  8.228630E-02  7.925560E-02  1.475903E+01
        10   7  1.920613E-01  3.051521E-01  6.555367E+01 -7.654490E-01 -1.624741E-01  1.046242E+01
        10   8  6.335773E-01  1.118065E+00  6.621346E+01  4.194321E-01 -3.900586E-01  1.219339E+01
        11   1 -1.879872E+00 -3.745828E+00  2.665072E+02  1.428076E-01  1.202257E+00  2.246325E+00
        11   2 -3.595081E+00 -5.219654E+00  2.634006E+02  6.669466E-01  2.584881E+00  2.104559E+00
        11   3  3.784752E+00 -2.965041E+00  2.840861E+02  2.442946E+00 -2.266418E+00  8.477940E+00
        11   4  5.192555E+00  2.558566E-02  2.902416E+02 -4.005751E+00 -4.688713E+00  1.059130E+01
        11   5 -2.031277E+00 -4.587236E+00  6.991505E+01  1.317937E-01  2.029484E-01  1.512799E+01
        11   6 -2.681995E+00 -5.224761E+00  6.868815E+01  6.531172E-01  6.027382E-01  1.652112E+01
        11   7  9.030799E+00  1.828277E+01  8.428682E+01  2.792196E+00 -5.231277E-01  8.063880E+00
        11   8  8.921614E+00  1.815252E+01  8.524642E+01 -3.656555E+00 -1.142863E+00  8.866881E+00
        12   1 -1.000642E+01 -9.910653E+00  3.154613E+02 -9.427867E-01  3.872227E+00 -8.610760E-01
        12   2 -1.707693E+01 -1.452694E+01  3.009789E+02  2.710488E+00  1.258740E+01 -1.512051E-02
        12   3  5.786123E+01  5.800960E+01  3.313874E+02 -2.238243E+00 -6.439205E+00  2.580801E+01
        12   4  6.106266E+01  6.146674E+01  3.397994E+02  7.670276E+00 -3.131400E+01  1.069647E+01
        12   5 -6.573415E+00 -1.054313E+01  7.999888E+01 -1.540168E-01  1.145551E+00  1.805753E+01
        12   6 -8.303026E+00 -1.148060E+01  7.636864E+01  3.500012E+00  3.457221E+00  1.881866E+01
        12   7  7.137578E-01 -1.808647E+01  7.327415E+01 -2.227840E+00 -1.702755E+00  7.387218E+00
        12   8  1.441984E+00 -1.754788E+01  7.548390E+01  7.680881E+00 -8.391490E+00 -7.891695E+00
        13   1  2.935309E-01  6.365886E-01 -4.783179E+01 -2.082620E-02  2.745449E-02  1.237717E+01
        13   2  4.248985E-01  9.343071E-01 -4.768984E+01  2.279001E-02  8.964012E-04  1.412715E+01
        13   3 -7.956203E-01 -1.871618E+00 -5.527285E+01  2.031827E-01  6.390607E-02  1.137503E+01
        13   4 -9.149775E-01 -2.178606E+00 -5.542306E+01 -2.071010E-01  9.352001E-02  1.301863E+01
        13   5  1.910183E-01  5.049796E-01 -1.795122E+02  2.822825E-02 -5.096065E-01  4.372426E+00
        13   6  3.387219E-01  8.463111E-01 -1.793546E+02  1.110604E-01 -6.084438E-01  5.123252E+00
        13   7 -1.957830E-01 -2.701376E-01 -2.036036E+02  7.949856E-02 -3.440140E-01  5.260619E+00
        13   8 -3.524637E-01 -7.124904E-01 -2.039049E+02 -3.307813E-01 -2.332145E-01  6.345724E+00
        14   1  6.784812E-01  1.726038E+00 -5.911277E+01  1.177420E-03 -4.079530E-03  1.294503E+01
        14   2  9.064967E-01  2.186136E+00 -5.887289E+01  8.228630E-02 -7.925560E-02  1.475903E+01
        14   3 -1.920613E-01 -3.051521E-01 -6.555367E+01 -7.654490E-01  1.624741E-01  1.046242E+01
        14   4 -6.335773E-01 -1.118065E+00 -6.621346E+01  4.194321E-01  3.900586E-01  1.219339E+01
        14   5  5.139823E-01  1.439305E+00 -2.223555E+02  1.278024E-01 -6.370507E-01  3.916632E+00
        14   6  9.305718E-01  2.032667E+00 -2.217844E+02  1.984034E-01 -9.440830E-01  4.379305E+00
        14   7 -2.128967E+00 -5.080248E+00 -2.458932E+02 -8.342970E-01 -1.256670E-01  5.979167E+00
        14   8 -2.793006E+00 -5.928932E+00 -2.472616E+02  3.505696E-01  6.972185E-01  7.365021E+00
        15   1  2.031277E+00  4.587236E+00 -6.991505E+01  1.317937E-01 -2.029484E-01  1.512799E+01
        15   2  2.681995E+00  5.224761E+00 -6.868815E+01  6.531172E-01 -6.027382E-01  1.652112E+01
        15   3 -9.030799E+00 -1.828277E+01 -8.428682E+01  2.792196E+00  5.231277E-01  8.063880E+00
        15   4 -8.921614E+00 -1.815252E+01 -8.524642E+01 -3.656555E+00  1.142863E+00  8.866881E+00
        15   5  1.879872E+00  3.745828E+00 -2.665072E+02  1.428076E-01 -1.202257E+00  2.246325E+00
        15   6  3.595081E+00  5.219654E+00 -2.634006E+02  6.669466E-01 -2.584881E+00  2.104559E+00
        15   7 -3.784752E+00  2.965041E+00 -2.840861E+02  2.442946E+00  2.266418E+00  8.477940E+00
        15   8 -5.192555E+00 -2.558566E-02 -2.902416E+02 -4.005751E+00  4.688713E+00  1.059130E+01
        16   1  6.573415E+00  1.054313E+01 -7.999888E+01 -1.540168E-01 -1.145551E+00  1.805753E+01
        16   2  8.303026E+00  1.148060E+01 -7.636864E+01  3.500012E+00 -3.457221E+00  1.881866E+01
        16   3 -7.137578E-01  1.808647E+01 -7.327415E+01 -2.227840E+00  1.702755E+00  7.387218E+00
        16   4 -1.441984E+00  1.754788E+01 -7.548390E+01  7.680881E+00  8.391490E+00 -7.891695E+00
        16   5  1.000642E+01  9.910653E+00 -3.154613E+02 -9.427867E-01 -3.872227E+00 -8.610760E-01
        16   6  1.707693E+01  1.452694E+01 -3.009789E+02  2.710488E+00 -1.258740E+01 -1.512051E-02
        16   7 -5.786123E+01 -5.800960E+01 -3.313874E+02 -2.238243E+00  6.439205E+00  2.580801E+01
        16   8 -6.106266E+01 -6.146674E+01 -3.397994E+02  7.670276E+00  3.131400E+01  1.069647E+01
        17   1  3.143997E+00 -1.280695E+01  9.806005E+00 -5.112865E+00 -1.965909E+00  7.848841E+00
        17   2  4.142131E+00 -2.523193E+00  9.128390E+00  5.259753E+00 -1.969580E+00  3.511143E+00
        17   3  1.066261E+00  4.011423E+00  3.335000E+01  9.878027E-01 -1.199394E+00  3.124056E+00
        17   4  1.044307E+00  2.262918E+00  3.390777E+01  1.061277E+00 -5.054508E-01  3.721373E+00
        17   5 -2.687359E+00 -2.516402E+00  1.894667E-01 -4.508313E+00  1.321879E+00  1.495190E+01
        17   6 -2.087278E+00  2.093897E-01  1.146408E+00 -1.743390E+00  7.458867E-01  9.688121E+00
        17   7  1.070721E+00  4.391177E+00  8.512835E+00  7.566945E-02  7.213903E-01  1.584576E+01
        17   8  7.821067E-01  2.457084E+00  9.185433E+00  1.491440E-01  3.323236E-01  1.330881E+01
        18   1 -1.492326E+00 -5.720532E-01  5.176917E+01  2.434564E-01  9.993188E-02  7.968446E+00
        18   2 -8.653738E-01 -1.259547E+00  5.172121E+01 -2.600854E+00 -4.835156E-01  5.315648E+00
        18   3  5.023767E-01  1.204311E+00  7.619580E+01  2.998438E-01 -6.647305E-01  4.491046E+00
        18   4  1.865307E-01  4.266042E-01  7.582635E+01  2.681251E-01 -5.606017E-01  4.648796E+00
        18   5 -1.013163E+00 -3.776725E+00  1.297666E+01  6.267645E-01 -1.520528E-01  1.203701E+01
        18   6 -1.668437E-01 -2.235673E+00  1.349964E+01 -1.790698E-01 -1.668759E-01  1.067890E+01
        18   7  7.514993E-01  1.456496E+00  2.131799E+01  9.630926E-02 -2.144445E-01  1.433357E+01
        18   8  3.333232E-01  6.123361E-01  2.074295E+01  6.459066E-02 -4.503208E-02  1.252659E+01
        19   1 -2.382862E-01 -1.435090E+00  9.411378E+01 -4.368408E-01 -3.893450E-01  5.892493E+00
        19   2 -2.325093E-02 -3.329592E-01  9.439204E+01  3.699779E-01 -3.932662E-01  4.648901E+00
        19   3  3.083136E-01  7.098100E-01  1.187749E+02  1.320185E-01 -5.781765E-01  5.308853E+00
        19   4  1.635653E-01  3.145626E-01  1.186911E+02  8.361600E-02 -4.933926E-01  4.642507E+00
        19   5 -5.192296E-01 -8.694511E-01  2.483226E+01 -2.480223E-01  1.430542E-01  1.353650E+01
        19   6 -3.289801E-01 -2.949676E-01  2.506975E+01  1.258844E-02  1.058876E-01  1.192211E+01