
 displacements (vx,vy,vz) for set NALL and time  0.5000000E+00

         1  0.000000E+00  0.000000E+00  0.000000E+00
         2  0.000000E+00  0.000000E+00  0.000000E+00
         3  0.000000E+00  0.000000E+00  0.000000E+00
         4  0.000000E+00  0.000000E+00  0.000000E+00
         5 -1.017863E-05  2.192611E-02  2.009079E-03
         6  1.017863E-05  2.192611E-02  2.009079E-03
         7 -1.025822E-05  2.191766E-02 -2.081160E-03
         8  1.025822E-05  2.191766E-02 -2.081160E-03
         9  0.000000E+00  0.000000E+00  0.000000E+00
        10  0.000000E+00  0.000000E+00  0.000000E+00
        11  0.000000E+00  0.000000E+00  0.000000E+00
        12  0.000000E+00  0.000000E+00  0.000000E+00
        13  0.000000E+00  0.000000E+00  0.000000E+00
        14  0.000000E+00  0.000000E+00  0.000000E+00
        15  0.000000E+00  0.000000E+00  0.000000E+00
        16  0.000000E+00  0.000000E+00  0.000000E+00
        17  0.000000E+00  0.000000E+00  0.000000E+00
        18  0.000000E+00  0.000000E+00  0.000000E+00
        19  0.000000E+00  0.000000E+00  0.000000E+00
        20  0.000000E+00  0.000000E+00  0.000000E+00
        21 -4.652131E-06  2.190455E-02  2.007144E-03
        22  1.190767E-16  2.190265E-02  2.002860E-03
        23  4.652131E-06  2.190455E-02  2.007144E-03
        24 -4.918388E-10  2.190720E-02  9.798248E-04
        25 -1.027259E-08  2.189389E-02 -3.601022E-05
        26 -5.340165E-08  2.190304E-02 -1.051917E-03
        27 -4.685255E-06  2.189615E-02 -2.079197E-03
        28  1.127540E-16  2.189431E-02 -2.074918E-03
        29  4.685255E-06  2.189615E-02 -2.079197E-03
        30  5.340165E-08  2.190304E-02 -1.051917E-03
        31  1.027259E-08  2.189389E-02 -3.601022E-05
        32  4.918390E-10  2.190720E-02  9.798248E-04
        33 -7.716036E-05  1.345695E-04  2.314081E-04
        34 -5.626339E-05  4.801952E-04  4.633980E-04
        35 -6.354206E-05  1.080494E-03  6.809765E-04
        36 -5.608564E-05  1.871581E-03  8.818280E-04
        37 -5.331509E-05  2.868380E-03  1.064468E-03
        38 -4.773320E-05  4.033420E-03  1.232103E-03
        39 -4.347488E-05  5.363912E-03  1.382851E-03
        40 -3.844431E-05  6.836391E-03  1.517569E-03
        41 -3.381120E-05  8.438566E-03  1.635265E-03
        42 -2.911448E-05  1.015299E-02  1.736916E-03
        43 -2.384098E-05  1.196344E-02  1.821986E-03
        44 -1.911328E-05  1.385668E-02  1.891208E-03
        45 -1.490407E-05  1.580782E-02  1.942868E-03
        46 -1.222991E-05  1.781408E-02  1.979082E-03
        47 -9.462319E-07  1.984950E-02  1.999774E-03
        48  9.462319E-07  1.984950E-02  1.999774E-03
        49  1.222991E-05  1.781408E-02  1.979082E-03
        50  1.490407E-05  1.580782E-02  1.942868E-03
        51  1.911328E-05  1.385668E-02  1.891208E-03
        52  2.384098E-05  1.196344E-02  1.821986E-03
        53  2.911448E-05  1.015299E-02  1.736916E-03
        54  3.381120E-05  8.438566E-03  1.635265E-03
        55  3.844431E-05  6.836391E-03  1.517569E-03
        56  4.347488E-05  5.363912E-03  1.382851E-03
        57  4.773320E-05  4.033420E-03  1.232103E-03
        58  5.331509E-05  2.868380E-03  1.064468E-03
        59  5.608564E-05  1.871581E-03  8.818280E-04
        60  6.354206E-05  1.080494E-03  6.809765E-04
        61  5.626339E-05  4.801952E-04  4.633980E-04
        62  7.716036E-05  1.345695E-04  2.314081E-04
        63  7.719165E-05  1.344174E-04 -2.315372E-04
        64  5.625543E-05  4.797080E-04 -4.638703E-04
        65  6.354758E-05  1.079531E-03 -6.822360E-04
        66  5.608663E-05  1.869970E-03 -8.844015E-04
        67  5.331503E-05  2.866076E-03 -1.069058E-03
        68  4.772865E-05  4.030331E-03 -1.239432E-03
        69  4.347105E-05  5.360032E-03 -1.393730E-03
        70  3.843706E-05  6.831712E-03 -1.532784E-03
        71  3.380327E-05  8.433131E-03 -1.655602E-03
        72  2.910375E-05  1.014684E-02 -1.763115E-03
        73  2.383171E-05  1.195666E-02 -1.854709E-03
        74  1.909729E-05  1.384936E-02 -1.931063E-03
        75  1.489310E-05  1.580007E-02 -1.990311E-03
        76  1.220086E-05  1.780599E-02 -2.034548E-03
        77  9.547340E-07  1.984126E-02 -2.063426E-03
        78 -7.719165E-05  1.344174E-04 -2.315372E-04
        79 -5.625543E-05  4.797080E-04 -4.638703E-04
        80 -6.354758E-05  1.079531E-03 -6.822360E-04
        81 -5.608663E-05  1.869970E-03 -8.844015E-04
        82 -5.331503E-05  2.866076E-03 -1.069058E-03
        83 -4.772865E-05  4.030331E-03 -1.239432E-03
        84 -4.347105E-05  5.360032E-03 -1.393730E-03
        85 -3.843706E-05  6.831712E-03 -1.532784E-03
        86 -3.380327E-05  8.433131E-03 -1.655602E-03
        87 -2.910375E-05  1.014684E-02 -1.763115E-03
        88 -2.383171E-05  1.195666E-02 -1.854709E-03
        89 -1.909729E-05  1.384936E-02 -1.931063E-03
        90 -1.489310E-05  1.580007E-02 -1.990311E-03
        91 -1.220086E-05  1.780599E-02 -2.034548E-03
        92 -9.547340E-07  1.984126E-02 -2.063426E-03
        93  0.000000E+00  0.000000E+00  0.000000E+00
        94  0.000000E+00  0.000000E+00  0.000000E+00
        95  0.000000E+00  0.000000E+00  0.000000E+00
        96  0.000000E+00  0.000000E+00  0.000000E+00
        97  0.000000E+00  0.000000E+00  0.000000E+00
        98  1.242644E-16  2.189538E-02  9.810396E-04
        99  6.010222E-09  2.189265E-02 -3.602060E-05
       100  1.236950E-16  2.188885E-02 -3.601724E-05
       101 -6.010222E-09  2.189265E-02 -3.602060E-05
       102  1.189433E-16  2.189123E-02 -1.053086E-03
       103  4.997083E-19  1.676591E-04  2.247322E-04
       104  2.784973E-05  5.073999E-04  4.663555E-04
       105  2.519751E-18  5.135254E-04  4.697197E-04
       106 -2.784973E-05  5.073999E-04  4.663555E-04
       107  5.711607E-18  1.110700E-03  6.811109E-04
       108  2.804496E-05  1.893342E-03  8.834298E-04
       109  1.013571E-17  1.901845E-03  8.836750E-04
       110 -2.804496E-05  1.893342E-03  8.834298E-04
       111  1.462996E-17  2.894388E-03  1.065291E-03
       112  2.385015E-05  4.051972E-03  1.233218E-03
       113  2.098222E-17  4.058135E-03  1.233237E-03
       114 -2.385015E-05  4.051972E-03  1.233218E-03
       115  2.826988E-17  5.385458E-03  1.383821E-03
       116  1.922569E-05  6.850802E-03  1.518633E-03
       117  3.789377E-17  6.855735E-03  1.518523E-03
       118 -1.922569E-05  6.850802E-03  1.518633E-03
       119  4.545364E-17  8.455557E-03  1.636253E-03
       120  1.454508E-05  1.016386E-02  1.738010E-03
       121  5.250234E-17  1.016713E-02  1.737887E-03
       122 -1.454508E-05  1.016386E-02  1.738010E-03
       123  6.533430E-17  1.197567E-02  1.822975E-03
       124  9.600737E-06  1.386233E-02  1.892150E-03
       125  7.690521E-17  1.386450E-02  1.892006E-03
       126 -9.600737E-06  1.386233E-02  1.892150E-03
       127  8.718452E-17  1.581662E-02  1.943941E-03
       128  5.927588E-06  1.781897E-02  1.980449E-03
       129  1.006741E-16  1.781641E-02  1.980476E-03
       130 -5.927588E-06  1.781897E-02  1.980449E-03
       131  1.092948E-16  1.985198E-02  2.000251E-03
       132  2.691204E-08  8.702821E-05 -5.429714E-08
       133 -2.837596E-05  4.609601E-04  2.295418E-04
       134  2.342553E-08  4.637361E-04 -2.110898E-07
       135  2.840094E-05  4.607121E-04 -2.299787E-04
       136  2.252983E-08  1.043050E-03 -5.737231E-07
       137 -2.796995E-05  1.854140E-03  4.374639E-04
       138  1.644123E-08  1.849801E-03 -1.241186E-06
       139  2.798958E-05  1.853342E-03 -4.399609E-04
       140  1.219671E-08  2.838544E-03 -2.229212E-06
       141 -2.387541E-05  4.015843E-03  6.117823E-04
       142  9.617950E-09  4.010685E-03 -3.608231E-06
       143  2.388475E-05  4.014309E-03 -6.190250E-04
       144  6.690486E-09  5.339521E-03 -5.373225E-06
       145 -1.923337E-05  6.821177E-03  7.524010E-04
       146  3.939323E-09  6.815546E-03 -7.547878E-06
       147  1.923491E-05  6.818852E-03 -7.675258E-04
       148  1.108858E-09  8.418978E-03 -1.011055E-05
       149 -1.448114E-05  1.014043E-02  8.594344E-04
       150 -5.142859E-10  1.013506E-02 -1.304413E-05
       151  1.447607E-05  1.013737E-02 -8.855509E-04
       152 -2.536699E-09  1.194839E-02 -1.631685E-05
       153 -9.878940E-06  1.384591E-02  9.328705E-04
       154 -2.943005E-09  1.384029E-02 -1.987785E-05
       155  9.867913E-06  1.384226E-02 -9.726603E-04
       156 -6.585401E-09  1.579922E-02 -2.370117E-05
       157 -4.883902E-06  1.780723E-02  9.739866E-04
       158 -6.459508E-09  1.780148E-02 -2.769185E-05
       159  4.864040E-06  1.780320E-02 -1.029390E-03
       160 -1.787147E-09  1.984450E-02 -3.183459E-05
       161  9.454041E-20  1.675086E-04 -2.248850E-04
       162  2.785403E-05  5.068948E-04 -4.668839E-04
       163  1.504102E-18  5.130270E-04 -4.702683E-04
       164 -2.785403E-05  5.068948E-04 -4.668839E-04
       165  4.086368E-18  1.109720E-03 -6.824572E-04
       166  2.804872E-05  1.891721E-03 -8.860877E-04
       167  7.994244E-18  1.900230E-03 -8.863634E-04
       168 -2.804872E-05  1.891721E-03 -8.860877E-04
       169  1.261997E-17  2.892073E-03 -1.069997E-03
       170  2.385088E-05  4.048872E-03 -1.240641E-03
       171  1.804851E-17  4.055040E-03 -1.240691E-03
       172 -2.385088E-05  4.048872E-03 -1.240641E-03
       173  2.570238E-17  5.381567E-03 -1.394822E-03
       174  1.922382E-05  6.846113E-03 -1.533940E-03
       175  3.407232E-17  6.851049E-03 -1.533860E-03
       176 -1.922382E-05  6.846113E-03 -1.533940E-03
       177  3.928910E-17  8.450112E-03 -1.656705E-03
       178  1.454068E-05  1.015770E-02 -1.764285E-03
       179  4.850177E-17  1.016097E-02 -1.764185E-03
       180 -1.454068E-05  1.015770E-02 -1.764285E-03
       181  6.079553E-17  1.196889E-02 -1.855791E-03
       182  9.593304E-06  1.385500E-02 -1.932055E-03
       183  7.033719E-17  1.385718E-02 -1.931924E-03
       184 -9.593304E-06  1.385500E-02 -1.932055E-03
       185  7.943237E-17  1.580886E-02 -1.991452E-03
       186  5.912800E-06  1.781088E-02 -2.035933E-03
       187  8.881479E-17  1.780833E-02 -2.035950E-03
       188 -5.912800E-06  1.781088E-02 -2.035933E-03
       189  9.946456E-17  1.984372E-02 -2.063948E-03
       190 -2.691204E-08  8.702821E-05 -5.429714E-08
       191 -2.840094E-05  4.607121E-04 -2.299787E-04
       192 -2.342553E-08  4.637361E-04 -2.110898E-07
       193  2.837596E-05  4.609601E-04  2.295418E-04
       194 -2.252983E-08  1.043050E-03 -5.737231E-07
       195 -2.798958E-05  1.853342E-03 -4.399609E-04
       196 -1.644123E-08  1.849801E-03 -1.241186E-06
       197  2.796995E-05  1.854140E-03  4.374639E-04
       198 -1.219671E-08  2.838544E-03 -2.229212E-06
       199 -2.388475E-05  4.014309E-03 -6.190250E-04
       200 -9.617950E-09  4.010685E-03 -3.608231E-06
       201  2.387541E-05  4.015843E-03  6.117823E-04
       202 -6.690486E-09  5.339521E-03 -5.373225E-06
       203 -1.923491E-05  6.818852E-03 -7.675258E-04
       204 -3.939323E-09  6.815546E-03 -7.547878E-06
       205  1.923337E-05  6.821177E-03  7.524010E-04
       206 -1.108858E-09  8.418978E-03 -1.011055E-05
       207 -1.447607E-05  1.013737E-02 -8.855509E-04
       208  5.142860E-10  1.013506E-02 -1.304413E-05
       209  1.448114E-05  1.014043E-02  8.594344E-04
       210  2.536699E-09  1.194839E-02 -1.631685E-05
       211 -9.867913E-06  1.384226E-02 -9.726603E-04
       212  2.943005E-09  1.384029E-02 -1.987785E-05
       213  9.878940E-06  1.384591E-02  9.328705E-04
       214  6.585401E-09  1.579922E-02 -2.370117E-05
       215 -4.864040E-06  1.780320E-02 -1.029390E-03
       216  6.459508E-09  1.780148E-02 -2.769185E-05
       217  4.883902E-06  1.780723E-02  9.739866E-04
       218  1.787147E-09  1.984450E-02 -3.183459E-05
       219  4.922657E-19  1.199323E-04 -6.944972E-08
       220  2.485706E-18  4.926651E-04  2.322175E-04
       221 -1.279388E-08  4.899000E-04 -2.354120E-07
       222  2.220953E-18  4.944807E-04 -2.431599E-07
       223  1.279388E-08  4.899000E-04 -2.354120E-07
       224  1.930082E-18  4.924088E-04 -2.327252E-04
       225  5.040071E-18  1.074349E-03 -6.187004E-07
       226  9.241181E-18  1.883386E-03  4.390098E-04
       227 -8.847792E-09  1.870401E-03 -1.281303E-06
       228  9.106422E-18  1.877873E-03 -1.293363E-06
       229  8.847792E-09  1.870401E-03 -1.281303E-06
       230  8.531017E-18  1.882582E-03 -4.416154E-04
       231  1.405660E-17  2.865303E-03 -2.288485E-06
       232  2.125939E-17  4.040035E-03  6.128051E-04
       233 -5.284966E-09  4.028741E-03 -3.653521E-06
       234  2.007030E-17  4.034403E-03 -3.667846E-06
       235  5.284966E-09  4.028741E-03 -3.653521E-06
       236  1.945924E-17  4.038493E-03 -6.201702E-04
       237  2.756122E-17  5.361310E-03 -5.435138E-06
       238  3.539964E-17  6.840486E-03  7.533775E-04
       239 -2.251022E-09  6.829944E-03 -7.593413E-06
       240  3.587947E-17  6.834781E-03 -7.608056E-06
       241  2.251022E-09  6.829944E-03 -7.593413E-06
       242  3.287473E-17  6.838153E-03 -7.686227E-04
       243  4.248299E-17  8.435810E-03 -1.016679E-05
       244  5.360832E-17  1.015485E-02  8.603899E-04
       245  9.583998E-12  1.014607E-02 -1.308343E-05
       246  4.993851E-17  1.014985E-02 -1.309688E-05
       247 -9.583895E-12  1.014607E-02 -1.308343E-05
       248  5.165292E-17  1.015179E-02 -8.866095E-04
       249  6.107679E-17  1.196012E-02 -1.636119E-05
       250  7.476871E-17  1.385513E-02  9.339131E-04
       251  1.686874E-09  1.384794E-02 -1.990907E-05
       252  7.587615E-17  1.385060E-02 -1.991997E-05
       253 -1.686874E-09  1.384794E-02 -1.990907E-05
       254  7.255417E-17  1.385148E-02 -9.737734E-04
       255  8.738077E-17  1.580614E-02 -2.372587E-05
       256  9.765824E-17  1.781082E-02  9.745492E-04
       257  2.493772E-09  1.780538E-02 -2.770424E-05
       258  9.759057E-17  1.780755E-02 -2.771083E-05
       259 -2.493772E-09  1.780538E-02 -2.770424E-05
       260  9.380699E-17  1.780680E-02 -1.029986E-03
       261  1.110388E-16  1.984472E-02 -3.184787E-05

 stresses (elem, integ.pnt.,sxx,syy,szz,sxy,sxz,syz) for set EALL and time  0.5000000E+00

         1   1  1.526461E+01  1.535806E+01  8.498645E+01 -1.915267E+00  7.833759E+00  2.693593E+00
         1   2  1.446301E+01  1.449568E+01  8.287785E+01  5.595367E-01  1.611191E+00  6.474816E+00
         1   3  3.556751E-01 -4.400900E+00  1.885094E+01 -1.919643E+00  2.094353E+00 -1.968479E+00
         1   4  1.724862E-01 -4.535538E+00  1.829427E+01  5.569216E-01  4.248226E-01  1.851702E+00
         1   5 -4.266184E+00 -3.639928E+00  7.528247E+01 -6.805202E-01 -3.147020E+00  5.270550E-02
         1   6 -2.498145E+00 -2.489149E+00  7.890048E+01  2.333478E-01 -9.680608E-01 -1.575591E-01
         1   7 -2.073621E+00 -2.880810E+00  1.907582E+01 -8.765217E-01 -8.629680E-01  4.721403E+00
         1   8 -1.644396E+00 -2.652918E+00  1.997567E+01  3.789197E-02 -2.859205E-01  4.531616E+00
         2   1  1.446301E+01  1.449568E+01  8.287785E+01 -5.595367E-01 -1.611191E+00  6.474816E+00
         2   2  1.526461E+01  1.535806E+01  8.498645E+01  1.915267E+00 -7.833759E+00  2.693593E+00
         2   3  1.724862E-01 -4.535538E+00  1.829427E+01 -5.569216E-01 -4.248226E-01  1.851702E+00
         2   4  3.556751E-01 -4.400900E+00  1.885094E+01  1.919643E+00 -2.094353E+00 -1.968479E+00
         2   5 -2.498145E+00 -2.489149E+00  7.890048E+01 -2.333478E-01  9.680608E-01 -1.575591E-01
         2   6 -4.266184E+00 -3.639928E+00  7.528247E+01  6.805202E-01  3.147020E+00  5.270550E-02
         2   7 -1.644396E+00 -2.652918E+00  1.997567E+01 -3.789197E-02  2.859205E-01  4.531616E+00
         2   8 -2.073621E+00 -2.880810E+00  1.907582E+01  8.765217E-01  8.629680E-01  4.721403E+00
         3   1 -3.653088E-01  4.373006E+00 -1.889082E+01 -1.920783E+00 -2.101370E+00 -1.977333E+00
         3   2 -1.843872E-01  4.507659E+00 -1.834262E+01  5.569931E-01 -4.265503E-01  1.841904E+00
         3   3 -1.526659E+01 -1.537519E+01 -8.491246E+01 -1.919853E+00 -7.823163E+00  2.654659E+00
         3   4 -1.446748E+01 -1.450901E+01 -8.281510E+01  5.595810E-01 -1.608395E+00  6.429169E+00
         3   5  2.077874E+00  2.859435E+00 -1.910829E+01 -8.734717E-01  8.656332E-01  4.687914E+00
         3   6  1.642298E+00  2.618593E+00 -2.002355E+01  3.911756E-02  2.868515E-01  4.497132E+00
         3   7  4.272247E+00  3.623428E+00 -7.520619E+01 -6.747169E-01  3.146652E+00 -6.018447E-02
         3   8  2.505047E+00  2.466071E+00 -7.882932E+01  2.380446E-01  9.680416E-01 -2.728952E-01
         4   1 -1.843872E-01  4.507659E+00 -1.834262E+01 -5.569931E-01  4.265503E-01  1.841904E+00
         4   2 -3.653088E-01  4.373006E+00 -1.889082E+01  1.920783E+00  2.101370E+00 -1.977333E+00
         4   3 -1.446748E+01 -1.450901E+01 -8.281510E+01 -5.595810E-01  1.608395E+00  6.429169E+00
         4   4 -1.526659E+01 -1.537519E+01 -8.491246E+01  1.919853E+00  7.823163E+00  2.654659E+00
         4   5  1.642298E+00  2.618593E+00 -2.002355E+01 -3.911756E-02 -2.868515E-01  4.497132E+00
         4   6  2.077874E+00  2.859435E+00 -1.910829E+01  8.734717E-01 -8.656332E-01  4.687914E+00
         4   7  2.505047E+00  2.466071E+00 -7.882932E+01 -2.380446E-01 -9.680416E-01 -2.728952E-01
         4   8  4.272247E+00  3.623428E+00 -7.520619E+01  6.747169E-01 -3.146652E+00 -6.018447E-02
         5   1  1.297146E+00  6.565657E-03  7.259186E+01  1.001506E+00  1.171261E+00  2.730059E+00
         5   2  9.497704E-01 -7.424680E-01  7.105149E+01 -6.113689E-01  5.665349E-01  2.201224E+00
         5   3  2.227372E+00  4.523174E+00  2.129267E+01  9.130944E-01  2.846123E-01  2.238525E+00
         5   4  2.253887E+00  4.550263E+00  2.104867E+01 -6.982893E-01  1.304686E-01  2.037802E+00
         5   5 -8.973157E-01 -1.307912E+00  6.588013E+01 -1.682834E-01 -6.464520E-01  6.362640E-01
         5   6 -4.675900E-01 -9.415009E-01  6.665385E+01 -3.697770E-02 -3.005726E-01  6.715940E-01
         5   7 -6.699136E-01 -1.305216E+00  1.715154E+01 -1.643952E-01 -1.503373E-01  4.160620E+00
         5   8 -5.092180E-01 -1.152106E+00  1.745431E+01 -3.327419E-02 -5.046115E-02  3.812257E+00
         6   1  9.497704E-01 -7.424680E-01  7.105149E+01  6.113689E-01 -5.665349E-01  2.201224E+00
         6   2  1.297146E+00  6.565657E-03  7.259186E+01 -1.001506E+00 -1.171261E+00  2.730059E+00
         6   3  2.253887E+00  4.550263E+00  2.104867E+01  6.982893E-01 -1.304686E-01  2.037802E+00
         6   4  2.227372E+00  4.523174E+00  2.129267E+01 -9.130944E-01 -2.846123E-01  2.238525E+00
         6   5 -4.675900E-01 -9.415009E-01  6.665385E+01  3.697770E-02  3.005726E-01  6.715940E-01
         6   6 -8.973157E-01 -1.307912E+00  6.588013E+01  1.682834E-01  6.464520E-01  6.362640E-01
         6   7 -5.092180E-01 -1.152106E+00  1.745431E+01  3.327419E-02  5.046115E-02  3.812257E+00
         6   8 -6.699136E-01 -1.305216E+00  1.715154E+01  1.643952E-01  1.503373E-01  4.160620E+00
         7   1 -2.233414E+00 -4.553092E+00 -2.133026E+01  9.151771E-01 -2.868196E-01  2.194928E+00
         7   2 -2.261490E+00 -4.591131E+00 -2.109446E+01 -6.978022E-01 -1.310945E-01  1.994148E+00
         7   3 -1.299120E+00 -6.411253E-03 -7.252804E+01  1.001361E+00 -1.173087E+00  2.565661E+00
         7   4 -9.425923E-01  7.398625E-01 -7.099066E+01 -6.100988E-01 -5.666690E-01  2.037816E+00
         7   5  6.710794E-01  1.307056E+00 -1.719224E+01 -1.621592E-01  1.510270E-01  4.099900E+00
         7   6  5.064181E-01  1.141405E+00 -1.750291E+01 -3.262116E-02  5.101149E-02  3.751703E+00
         7   7  9.002169E-01  1.301540E+00 -6.581908E+01 -1.651893E-01  6.459801E-01  4.161340E-01
         7   8  4.723432E-01  9.310433E-01 -6.659866E+01 -3.442571E-02  3.005507E-01  4.516827E-01
         8   1 -2.261490E+00 -4.591131E+00 -2.109446E+01  6.978022E-01  1.310945E-01  1.994148E+00
         8   2 -2.233414E+00 -4.553092E+00 -2.133026E+01 -9.151771E-01  2.868196E-01  2.194928E+00
         8   3 -9.425923E-01  7.398625E-01 -7.099066E+01  6.100988E-01  5.666690E-01  2.037816E+00
         8   4 -1.299120E+00 -6.411253E-03 -7.252804E+01 -1.001361E+00  1.173087E+00  2.565661E+00
         8   5  5.064181E-01  1.141405E+00 -1.750291E+01  3.262116E-02 -5.101149E-02  3.751703E+00
         8   6  6.710794E-01  1.307056E+00 -1.719224E+01  1.621592E-01 -1.510270E-01  4.099900E+00
         8   7  4.723432E-01  9.310433E-01 -6.659866E+01  3.442571E-02 -3.005507E-01  4.516827E-01
         8   8  9.002169E-01  1.301540E+00 -6.581908E+01  1.651893E-01 -6.459801E-01  4.161340E-01
         9   1  6.986014E-01  1.483324E+00  6.183713E+01 -8.823264E-02  1.737962E-01  1.960032E+00
         9   2  5.336931E-01  1.269006E+00  6.149397E+01  2.074808E-01 -3.160408E-02  1.613649E+00
         9   3  1.572221E-01  2.786535E-01  1.653502E+01 -1.055720E-01  9.709178E-02  3.079783E+00
         9   4  4.560601E-02  7.054566E-02  1.636797E+01  1.911106E-01  4.065594E-02  2.647076E+00
         9   5 -2.319372E-01 -5.054714E-01  5.546592E+01 -5.058891E-02 -2.362244E-01  1.227567E+00
         9   6 -1.268465E-01 -3.588911E-01  5.560727E+01 -3.290704E-02 -1.592422E-01  1.111495E+00
         9   7 -2.269042E-01 -5.375434E-01  1.469793E+01 -2.125714E-02 -1.995625E-02  3.726251E+00
         9   8 -1.710405E-01 -4.279193E-01  1.475680E+01 -4.814531E-04 -9.850681E-04  3.272494E+00
        10   1  5.336931E-01  1.269006E+00  6.149397E+01 -2.074808E-01  3.160408E-02  1.613649E+00
        10   2  6.986014E-01  1.483324E+00  6.183713E+01  8.823264E-02 -1.737962E-01  1.960032E+00
        10   3  4.560601E-02  7.054566E-02  1.636797E+01 -1.911106E-01 -4.065594E-02  2.647076E+00
        10   4  1.572221E-01  2.786535E-01  1.653502E+01  1.055720E-01 -9.709178E-02  3.079783E+00
        10   5 -1.268465E-01 -3.588911E-01  5.560727E+01  3.290704E-02  1.592422E-01  1.111495E+00
        10   6 -2.319372E-01 -5.054714E-01  5.546592E+01  5.058891E-02  2.362244E-01  1.227567E+00
        10   7 -1.710405E-01 -4.279193E-01  1.475680E+01  4.814531E-04  9.850681E-04  3.272494E+00
        10   8 -2.269042E-01 -5.375434E-01  1.469793E+01  2.125714E-02  1.995625E-02  3.726251E+00
        11   1 -1.595658E-01 -2.804981E-01 -1.657139E+01 -1.041423E-01 -9.793974E-02  3.016885E+00
        11   2 -5.042458E-02 -8.215209E-02 -1.640855E+01  1.916130E-01 -4.058200E-02  2.584110E+00
        11   3 -6.978935E-01 -1.481591E+00 -6.179251E+01 -8.705159E-02 -1.748135E-01  1.722579E+00
        11   4 -5.307823E-01 -1.271570E+00 -6.145143E+01  2.096664E-01  3.122530E-02  1.376035E+00
        11   5  2.263423E-01  5.553462E-01 -1.473815E+01 -1.988540E-02  1.966830E-02  3.653190E+00
        11   6  1.681988E-01  4.349235E-01 -1.479922E+01 -1.068212E-04  1.053741E-03  3.199957E+00
        11   7  2.333470E-01  5.102298E-01 -5.542497E+01 -4.861323E-02  2.358120E-01  9.621897E-01
        11   8  1.301450E-01  3.601338E-01 -5.556916E+01 -3.099389E-02  1.592784E-01  8.469242E-01
        12   1 -5.042458E-02 -8.215209E-02 -1.640855E+01 -1.916130E-01  4.058200E-02  2.584110E+00
        12   2 -1.595658E-01 -2.804981E-01 -1.657139E+01  1.041423E-01  9.793974E-02  3.016885E+00
        12   3 -5.307823E-01 -1.271570E+00 -6.145143E+01 -2.096664E-01 -3.122530E-02  1.376035E+00
        12   4 -6.978935E-01 -1.481591E+00 -6.179251E+01  8.705159E-02  1.748135E-01  1.722579E+00
        12   5  1.681988E-01  4.349235E-01 -1.479922E+01  1.068212E-04 -1.053741E-03  3.199957E+00
        12   6  2.263423E-01  5.553462E-01 -1.473815E+01  1.988540E-02 -1.966830E-02  3.653190E+00
        12   7  1.301450E-01  3.601338E-01 -5.556916E+01  3.099389E-02 -1.592784E-01  8.469242E-01
        12   8  2.333470E-01  5.102298E-01 -5.542497E+01  4.861323E-02 -2.358120E-01  9.621897E-01
        13   1  8.823406E-02  1.827812E-01  5.099030E+01  8.198563E-02 -5.883030E-02  1.720005E+00
        13   2  5.015100E-02  7.015243E-02  5.091470E+01 -2.075675E-02 -8.610824E-02  1.448808E+00
        13   3  2.281007E-01  5.528950E-01  1.383751E+01  5.121071E-02  2.322892E-02  3.290310E+00
        13   4  1.973653E-01  4.714296E-01  1.379925E+01 -5.095121E-02  1.602596E-02  2.879540E+00
        13   5 -8.417119E-02 -2.057389E-01  4.485028E+01 -2.854142E-02 -1.522859E-01  1.414880E+00
        13   6 -4.656249E-02 -1.222003E-01  4.488951E+01 -7.854768E-03 -1.273695E-01  1.226819E+00
        13   7 -1.062746E-01 -2.183338E-01  1.190286E+01 -6.138166E-03  1.075670E-04  3.568178E+00
        13   8 -7.423234E-02 -1.486609E-01  1.193869E+01  5.097098E-03  6.911755E-03  3.130469E+00
        14   1  5.015100E-02  7.015243E-02  5.091470E+01  2.075675E-02  8.610824E-02  1.448808E+00
        14   2  8.823406E-02  1.827812E-01  5.099030E+01 -8.198563E-02  5.883030E-02  1.720005E+00
        14   3  1.973653E-01  4.714296E-01  1.379925E+01  5.095121E-02 -1.602596E-02  2.879540E+00
        14   4  2.281007E-01  5.528950E-01  1.383751E+01 -5.121071E-02 -2.322892E-02  3.290310E+00
        14   5 -4.656249E-02 -1.222003E-01  4.488951E+01  7.854768E-03  1.273695E-01  1.226819E+00
        14   6 -8.417119E-02 -2.057389E-01  4.485028E+01  2.854142E-02  1.522859E-01  1.414880E+00
        14   7 -7.423234E-02 -1.486609E-01  1.193869E+01 -5.097098E-03 -6.911755E-03  3.130469E+00
        14   8 -1.062746E-01 -2.183338E-01  1.190286E+01  6.138166E-03 -1.075670E-04  3.568178E+00
        15   1 -2.293850E-01 -5.365913E-01 -1.387365E+01  5.233980E-02 -2.353402E-02  3.218935E+00
        15   2 -2.004416E-01 -4.645642E-01 -1.383681E+01 -5.063910E-02 -1.592787E-02  2.807916E+00
        15   3 -8.799683E-02 -1.741648E-01 -5.096080E+01  8.340256E-02  5.777322E-02  1.452944E+00
        15   4 -4.773874E-02 -6.561886E-02 -5.088571E+01 -1.899246E-02  8.589433E-02  1.181591E+00
        15   5  1.061738E-01  2.486000E-01 -1.194167E+01 -5.256783E-03 -3.431844E-04  3.495288E+00
        15   6  7.253285E-02  1.694163E-01 -1.197683E+01  5.316559E-03 -6.816153E-03  3.058023E+00
        15   7  8.518909E-02  2.166176E-01 -4.482559E+01 -2.698955E-02  1.519314E-01  1.146820E+00
        15   8  4.894709E-02  1.294944E-01 -4.486518E+01 -6.258966E-03  1.274290E-01  9.594726E-01
        16   1 -2.004416E-01 -4.645642E-01 -1.383681E+01  5.063910E-02  1.592787E-02  2.807916E+00
        16   2 -2.293850E-01 -5.365913E-01 -1.387365E+01 -5.233980E-02  2.353402E-02  3.218935E+00
        16   3 -4.773874E-02 -6.561886E-02 -5.088571E+01  1.899246E-02 -8.589433E-02  1.181591E+00
        16   4 -8.799683E-02 -1.741648E-01 -5.096080E+01 -8.340256E-02 -5.777322E-02  1.452944E+00
        16   5  7.253285E-02  1.694163E-01 -1.197683E+01 -5.316559E-03  6.816153E-03  3.058023E+00
        16   6  1.061738E-01  2.486000E-01 -1.194167E+01  5.256783E-03  3.431844E-04  3.495288E+00
        16   7  4.894709E-02  1.294944E-01 -4.486518E+01  6.258966E-03 -1.274290E-01  9.594726E-01
        16   8  8.518909E-02  2.166176E-01 -4.482559E+01  2.698955E-02 -1.519314E-01  1.146820E+00
        17   1  8.029601E-02  2.154209E-01  4.035036E+01  7.142663E-03 -1.032999E-01  1.538459E+00
        17   2  5.044045E-02  1.435685E-01  4.032451E+01  2.645460E-02 -1.169242E-01  1.334542E+00
        17   3  6.530082E-02  1.646291E-01  1.084220E+01 -1.202615E-02  1.072133E-02  3.443452E+00
        17   4  3.013387E-02  8.118039E-02  1.080833E+01  7.634456E-03  9.230110E-03  3.008261E+00
        17   5 -7.515193E-02 -1.248397E-01  3.419770E+01 -6.995245E-03 -1.087182E-01  1.524544E+00
        17   6 -4.274939E-02 -7.843960E-02  3.421464E+01 -5.419055E-02 -1.236508E-01  1.282012E+00
        17   7 -7.166348E-02 -1.733157E-01  9.090781E+00  1.569433E-02  7.643697E-03  3.453440E+00
        17   8 -3.144232E-02 -8.820439E-02  9.127066E+00  5.322796E-03  5.752523E-03  3.041123E+00
        18   1  5.044045E-02  1.435685E-01  4.032451E+01 -2.645460E-02  1.169242E-01  1.334542E+00
        18   2  8.029601E-02  2.154209E-01  4.035036E+01 -7.142663E-03  1.032999E-01  1.538459E+00
        18   3  3.013387E-02  8.118039E-02  1.080833E+01 -7.634456E-03 -9.230110E-03  3.008261E+00
        18   4  6.530082E-02  1.646291E-01  1.084220E+01  1.202615E-02 -1.072133E-02  3.443452E+00
        18   5 -4.274939E-02 -7.843960E-02  3.421464E+01  5.419055E-02  1.236508E-01  1.282012E+00
        18   6 -7.515193E-02 -1.248397E-01  3.419770E+01  6.995245E-03  1.087182E-01  1.524544E+00
        18   7 -3.144232E-02 -8.820439E-02  9.127066E+00 -5.322796E-03 -5.752523E-03  3.041123E+00
        18   8 -7.166348E-02 -1.733157E-01  9.090781E+00 -1.569433E-02 -7.643697E-03  3.453440E+00
        19   1 -6.622780E-02 -1.323327E-01 -1.087987E+01 -1.134498E-02 -1.093383E-02  3.374930E+00
        19   2 -3.213292E-02 -5.759892E-02 -1.084382E+01  7.812155E-03 -9.046338E-03  2.939491E+00
        19   3 -8.003172E-02 -2.024613E-01 -4.033243E+01  8.445725E-03  1.024992E-01  1.282500E+00
        19   4 -4.911082E-02 -1.342188E-01 -4.030614E+01  2.795201E-02  1.167237E-01  1.078272E+00
        19   5  7.136753E-02  2.137990E-01 -9.128250E+00  1.623324E-02 -7.922462E-03  3.389030E+00
        19   6  3.051501E-02  1.207886E-01 -9.161464E+00  5.490182E-03 -5.865711E-03  2.977114E+00
        19   7  7.555985E-02  1.418813E-01 -3.418621E+01 -5.685362E-03  1.087271E-01  1.287112E+00
        19   8  4.400631E-02  9.136700E-02 -3.420111E+01 -5.278270E-02  1.237692E-01  1.045428E+00
        20   1 -3.213292E-02 -5.759892E-02 -1.084382E+01 -7.812155E-03  9.046338E-03  2.939491E+00
        20   2 -6.622780E-02 -1.323327E-01 -1.087987E+01  1.134498E-02  1.093383E-02  3.374930E+00
        20   3 -4.911082E-02 -1.342188E-01 -4.030614E+01 -2.795201E-02 -1.167237E-01  1.078272E+00
        20   4 -8.003172E-02 -2.024613E-01 -4.033243E+01 -8.445725E-03 -1.024992E-01  1.282500E+00
        20   5  3.051501E-02  1.207886E-01 -9.161464E+00 -5.490182E-03  5.865711E-03  2.977114E+00
        20   6  7.136753E-02  2.137990E-01 -9.128250E+00 -1.623324E-02  7.922462E-03  3.389030E+00
        20   7  4.400631E-02  9.136700E-02 -3.420111E+01  5.278270E-02 -1.237692E-01  1.045428E+00
        20   8  7.555985E-02  1.418813E-01 -3.418621E+01  5.685362E-03 -1.087271E-01  1.287112E+00
        21   1  7.739960E-02  1.862598E-01  2.969767E+01  3.240517E-02 -1.450097E-01  1.433605E+00