
 displacements (vx,vy,vz) for set N1 and time  0.6369308E-07

       100  3.361486E-23  4.061424E-21  5.021321E-05

 displacements (vx,vy,vz) for set N1 and time  0.1273862E-06

       100 -4.511192E-22  6.869758E-21  1.883021E-04

 displacements (vx,vy,vz) for set N1 and time  0.1910792E-06

       100 -5.087991E-21 -1.150181E-20  3.809557E-04

 displacements (vx,vy,vz) for set N1 and time  0.2547723E-06

       100 -1.641928E-20 -5.055592E-20  5.903336E-04

 displacements (vx,vy,vz) for set N1 and time  0.3184654E-06

       100 -2.338622E-20 -6.965643E-20  7.905718E-04

 displacements (vx,vy,vz) for set N1 and time  0.3821585E-06

       100 -2.367431E-20 -4.258767E-20  9.707500E-04

 displacements (vx,vy,vz) for set N1 and time  0.4458516E-06

       100 -3.302624E-20  2.160674E-20  1.130596E-03

 displacements (vx,vy,vz) for set N1 and time  0.5095446E-06

       100 -4.563223E-20  1.221799E-19  1.276637E-03

 displacements (vx,vy,vz) for set N1 and time  0.5732377E-06

       100 -4.484747E-20  2.424600E-19  1.419743E-03

 displacements (vx,vy,vz) for set N1 and time  0.6369308E-06

       100 -2.023353E-20  3.267570E-19  1.570223E-03

 displacements (vx,vy,vz) for set N1 and time  0.7006239E-06

       100  2.966437E-20  3.482907E-19  1.730985E-03

 displacements (vx,vy,vz) for set N1 and time  0.7643170E-06

       100  8.098502E-20  3.271457E-19  1.895501E-03

 displacements (vx,vy,vz) for set N1 and time  0.8280100E-06

       100  1.090104E-19  2.807082E-19  2.054613E-03

 displacements (vx,vy,vz) for set N1 and time  0.8917031E-06

       100  1.075675E-19  2.141442E-19  2.206197E-03

 displacements (vx,vy,vz) for set N1 and time  0.9553962E-06

       100  8.059222E-20  1.590848E-19  2.357135E-03

 displacements (vx,vy,vz) for set N1 and time  0.1019089E-05

       100 -5.187496E-18  7.429070E-20  2.515094E-03

 displacements (vx,vy,vz) for set N1 and time  0.1082782E-05

       100 -1.460832E-17 -1.557511E-18  2.679341E-03

 displacements (vx,vy,vz) for set N1 and time  0.1146475E-05

       100  8.734186E-16 -1.184558E-17  2.841077E-03

 displacements (vx,vy,vz) for set N1 and time  0.1210169E-05

       100  1.143397E-14 -1.872391E-18  2.992809E-03

 displacements (vx,vy,vz) for set N1 and time  0.1273862E-05

       100  7.285857E-14  6.188432E-16  3.136263E-03

 displacements (vx,vy,vz) for set N1 and time  0.1337555E-05

       100  2.994496E-13  6.041327E-15  3.280721E-03

 displacements (vx,vy,vz) for set N1 and time  0.1401248E-05

       100  8.941849E-13  3.574689E-14  3.434666E-03

 displacements (vx,vy,vz) for set N1 and time  0.1464941E-05

       100  2.159411E-12  1.577946E-13  3.599812E-03

 displacements (vx,vy,vz) for set N1 and time  0.1528634E-05

       100  4.834578E-12  5.629961E-13  3.771878E-03

 displacements (vx,vy,vz) for set N1 and time  0.1592327E-05

       100  1.104017E-11  1.699568E-12  3.944543E-03

 displacements (vx,vy,vz) for set N1 and time  0.1656020E-05

       100  2.419551E-11  4.475763E-12  4.111813E-03

 displacements (vx,vy,vz) for set N1 and time  0.1719713E-05

       100  4.363733E-11  1.048739E-11  4.269017E-03

 displacements (vx,vy,vz) for set N1 and time  0.1783406E-05

       100  5.402644E-11  2.204706E-11  4.415211E-03

 displacements (vx,vy,vz) for set N1 and time  0.1847099E-05

       100  2.596866E-11  4.136692E-11  4.555989E-03

 displacements (vx,vy,vz) for set N1 and time  0.1910792E-05

       100 -4.885316E-11  6.777147E-11  4.701943E-03

 displacements (vx,vy,vz) for set N1 and time  0.1974485E-05

       100 -1.088047E-10  9.228285E-11  4.861272E-03

 displacements (vx,vy,vz) for set N1 and time  0.2038179E-05

       100 -5.754469E-11  9.166927E-11  5.032456E-03

 displacements (vx,vy,vz) for set N1 and time  0.2101872E-05

       100  4.890619E-11  2.813558E-11  5.204714E-03

 displacements (vx,vy,vz) for set N1 and time  0.2165565E-05

       100 -1.565012E-10 -1.401472E-10  5.366684E-03

 displacements (vx,vy,vz) for set N1 and time  0.2229258E-05

       100 -1.075580E-09 -4.473576E-10  5.515257E-03

 displacements (vx,vy,vz) for set N1 and time  0.2292951E-05

       100 -2.364344E-09 -9.420942E-10  5.656693E-03

 displacements (vx,vy,vz) for set N1 and time  0.2356644E-05

       100 -2.518316E-09 -1.782640E-09  5.800436E-03

 displacements (vx,vy,vz) for set N1 and time  0.2420337E-05

       100 -5.504703E-11 -3.387152E-09  5.952576E-03

 displacements (vx,vy,vz) for set N1 and time  0.2484030E-05

       100  4.083405E-09 -6.514932E-09  6.113945E-03

 displacements (vx,vy,vz) for set N1 and time  0.2547723E-05

       100  5.918581E-09 -1.213100E-08  6.281503E-03

 displacements (vx,vy,vz) for set N1 and time  0.2611416E-05

       100  2.416923E-09 -2.113299E-08  6.449443E-03

 displacements (vx,vy,vz) for set N1 and time  0.2675109E-05

       100 -2.522916E-09 -3.445002E-08  6.609861E-03

 displacements (vx,vy,vz) for set N1 and time  0.2738802E-05

       100  1.580976E-09 -5.418898E-08  6.755434E-03

 displacements (vx,vy,vz) for set N1 and time  0.2802496E-05

       100  2.012547E-08 -8.580002E-08  6.883804E-03

 displacements (vx,vy,vz) for set N1 and time  0.2866189E-05

       100  3.952434E-08 -1.397756E-07  6.999197E-03

 displacements (vx,vy,vz) for set N1 and time  0.2929882E-05

       100  3.019342E-08 -2.306638E-07  7.108016E-03

 displacements (vx,vy,vz) for set N1 and time  0.2993575E-05

       100 -2.705340E-08 -3.730799E-07  7.211458E-03

 displacements (vx,vy,vz) for set N1 and time  0.3057268E-05

       100 -1.152997E-07 -5.786942E-07  7.302050E-03

 displacements (vx,vy,vz) for set N1 and time  0.3120961E-05

       100 -1.943583E-07 -8.606914E-07  7.367148E-03

 displacements (vx,vy,vz) for set N1 and time  0.3184654E-05

       100 -2.567283E-07 -1.247375E-06  7.395295E-03

 displacements (vx,vy,vz) for set N1 and time  0.3248347E-05

       100 -3.734541E-07 -1.794547E-06  7.379323E-03

 displacements (vx,vy,vz) for set N1 and time  0.3312040E-05

       100 -6.642635E-07 -2.577556E-06  7.315141E-03

 displacements (vx,vy,vz) for set N1 and time  0.3375733E-05

       100 -1.199012E-06 -3.653258E-06  7.200409E-03

 displacements (vx,vy,vz) for set N1 and time  0.3439426E-05

       100 -1.933313E-06 -5.011232E-06  7.036327E-03

 displacements (vx,vy,vz) for set N1 and time  0.3503119E-05

       100 -2.778184E-06 -6.559110E-06  6.830566E-03

 displacements (vx,vy,vz) for set N1 and time  0.3566813E-05

       100 -3.763180E-06 -8.173590E-06  6.597162E-03

 displacements (vx,vy,vz) for set N1 and time  0.3630506E-05

       100 -5.108754E-06 -9.788210E-06  6.352636E-03

 displacements (vx,vy,vz) for set N1 and time  0.3694199E-05

       100 -7.069312E-06 -1.142790E-05  6.111839E-03

 displacements (vx,vy,vz) for set N1 and time  0.3757892E-05

       100 -9.655418E-06 -1.311397E-05  5.886331E-03

 displacements (vx,vy,vz) for set N1 and time  0.3821585E-05

       100 -1.253984E-05 -1.467684E-05  5.684117E-03

 displacements (vx,vy,vz) for set N1 and time  0.3885278E-05

       100 -1.532391E-05 -1.564371E-05  5.508199E-03

 displacements (vx,vy,vz) for set N1 and time  0.3948971E-05

       100 -1.794723E-05 -1.536737E-05  5.354625E-03

 displacements (vx,vy,vz) for set N1 and time  0.4012664E-05

       100 -2.078277E-05 -1.336754E-05  5.213673E-03

 displacements (vx,vy,vz) for set N1 and time  0.4076357E-05

       100 -2.421467E-05 -9.605844E-06  5.075505E-03

 displacements (vx,vy,vz) for set N1 and time  0.4140050E-05

       100 -2.806272E-05 -4.375245E-06  4.936194E-03

 displacements (vx,vy,vz) for set N1 and time  0.4203743E-05

       100 -3.148508E-05  2.211096E-06  4.798521E-03

 displacements (vx,vy,vz) for set N1 and time  0.4267436E-05

       100 -3.356985E-05  1.070988E-05  4.666799E-03

 displacements (vx,vy,vz) for set N1 and time  0.4331129E-05

       100 -3.407447E-05  2.226782E-05  4.540982E-03

 displacements (vx,vy,vz) for set N1 and time  0.4394823E-05

       100 -3.351104E-05  3.785436E-05  4.415488E-03

 displacements (vx,vy,vz) for set N1 and time  0.4458516E-05

       100 -3.239820E-05  5.738231E-05  4.282742E-03

 displacements (vx,vy,vz) for set N1 and time  0.4522209E-05

       100 -3.042485E-05  7.956881E-05  4.137128E-03

 displacements (vx,vy,vz) for set N1 and time  0.4585902E-05

       100 -2.647149E-05  1.028347E-04  3.976258E-03

 displacements (vx,vy,vz) for set N1 and time  0.4649595E-05

       100 -1.958127E-05  1.265383E-04  3.800622E-03

 displacements (vx,vy,vz) for set N1 and time  0.4713288E-05

       100 -9.922975E-06  1.513559E-04  3.613848E-03

 displacements (vx,vy,vz) for set N1 and time  0.4776981E-05

       100  1.283713E-06  1.782893E-04  3.423189E-03

 displacements (vx,vy,vz) for set N1 and time  0.4840674E-05

       100  1.284357E-05  2.071165E-04  3.237882E-03

 displacements (vx,vy,vz) for set N1 and time  0.4904367E-05

       100  2.454718E-05  2.358139E-04  3.065070E-03

 displacements (vx,vy,vz) for set N1 and time  0.4968060E-05

       100  3.702257E-05  2.617021E-04  2.906365E-03

 displacements (vx,vy,vz) for set N1 and time  0.5000000E-05

       100  4.374340E-05  2.730993E-04  2.831283E-03
