
 displacements (vx,vy,vz) for set N1 and time  0.5000000E-06

       100 -1.340155E-07 -1.401396E-07  3.531944E-04

 displacements (vx,vy,vz) for set N1 and time  0.1000000E-05

       100 -1.299629E-06 -1.426598E-06  1.325745E-03

 displacements (vx,vy,vz) for set N1 and time  0.1500000E-05

       100 -4.636063E-06 -5.591389E-06  2.698956E-03

 displacements (vx,vy,vz) for set N1 and time  0.2000000E-05

       100 -1.013340E-05 -1.384275E-05  4.209588E-03

 displacements (vx,vy,vz) for set N1 and time  0.2500000E-05

       100 -1.751635E-05 -2.698976E-05  5.581255E-03

 displacements (vx,vy,vz) for set N1 and time  0.3000000E-05

       100 -2.719394E-05 -4.566040E-05  6.558050E-03

 displacements (vx,vy,vz) for set N1 and time  0.3500000E-05

       100 -3.880762E-05 -6.899456E-05  7.005703E-03

 displacements (vx,vy,vz) for set N1 and time  0.4000000E-05

       100 -5.066854E-05 -9.430254E-05  6.928890E-03

 displacements (vx,vy,vz) for set N1 and time  0.4500000E-05

       100 -6.120172E-05 -1.183638E-04  6.394640E-03

 displacements (vx,vy,vz) for set N1 and time  0.5000000E-05

       100 -6.923578E-05 -1.378888E-04  5.514656E-03
