
 displacements (vx,vy,vz) for set NALL and time  0.1000000E+01

         1  0.000000E+00  0.000000E+00  0.000000E+00
         2 -6.865510E-03  0.000000E+00  0.000000E+00
         3 -6.865510E-03 -6.865510E-03  0.000000E+00
         4 -5.117714E-16 -6.865510E-03  0.000000E+00
         5  4.928971E-10  4.928993E-10  1.261039E-01
         6 -6.865510E-03  4.929009E-10  1.261039E-01
         7 -6.865510E-03 -6.865510E-03  1.261039E-01
         8  4.928955E-10 -6.865510E-03  1.261039E-01
         9 -1.716377E-03  1.514016E-14  0.000000E+00
        10 -3.432755E-03  3.990189E-14  0.000000E+00
        11 -5.149132E-03  1.530259E-14  0.000000E+00
        12 -6.865510E-03 -1.716377E-03  0.000000E+00
        13 -6.865510E-03 -3.432755E-03  0.000000E+00
        14 -6.865510E-03 -5.149132E-03  0.000000E+00
        15 -5.149132E-03 -6.865510E-03  0.000000E+00
        16 -3.432755E-03 -6.865510E-03  0.000000E+00
        17 -1.716377E-03 -6.865510E-03  0.000000E+00
        18  1.485519E-14 -5.149132E-03  0.000000E+00
        19  3.968000E-14 -3.432755E-03  0.000000E+00
        20  1.516458E-14 -1.716377E-03  0.000000E+00
        21 -1.716377E-03  5.155538E-10  1.261039E-01
        22 -3.432755E-03  5.047237E-10  1.261039E-01
        23 -5.149132E-03  5.155546E-10  1.261039E-01
        24 -6.865510E-03 -1.716377E-03  1.261039E-01
        25 -6.865510E-03 -3.432755E-03  1.261039E-01
        26 -6.865510E-03 -5.149132E-03  1.261039E-01
        27 -5.149132E-03 -6.865510E-03  1.261039E-01
        28 -3.432755E-03 -6.865510E-03  1.261039E-01
        29 -1.716377E-03 -6.865510E-03  1.261039E-01
        30  5.155500E-10 -5.149132E-03  1.261039E-01
        31  5.047199E-10 -3.432755E-03  1.261039E-01
        32  5.155508E-10 -1.716377E-03  1.261039E-01
        33 -6.865510E-03 -3.054387E-15  7.881492E-03
        34 -6.865510E-03 -7.675743E-14  1.576298E-02
        35 -6.865510E-03 -2.676420E-14  2.364448E-02
        36 -6.865510E-03 -3.973922E-15  3.152597E-02
        37 -6.865510E-03  2.068945E-13  3.940746E-02
        38 -6.865510E-03 -5.048668E-13  4.728895E-02
        39 -6.865510E-03 -4.945850E-13  5.517045E-02
        40 -6.865510E-03 -3.704022E-13  6.305194E-02
        41 -6.865510E-03  3.310029E-12  7.093343E-02
        42 -6.865510E-03 -4.773171E-12  7.881492E-02
        43 -6.865510E-03 -7.092126E-12  8.669641E-02
        44 -6.865510E-03 -7.008903E-12  9.457791E-02
        45 -6.865510E-03  4.897396E-11  1.024594E-01
        46 -6.865510E-03 -3.186300E-11  1.103409E-01
        47 -6.865509E-03 -1.194390E-10  1.182224E-01
        48 -1.194426E-10 -1.194405E-10  1.182224E-01
        49 -3.186644E-11 -3.186451E-11  1.103409E-01
        50  4.897075E-11  4.897257E-11  1.024594E-01
        51 -7.011912E-12 -7.010334E-12  9.457791E-02
        52 -7.094931E-12 -7.093517E-12  8.669641E-02
        53 -4.775710E-12 -4.774554E-12  7.881492E-02
        54  3.307788E-12  3.308716E-12  7.093343E-02
        55 -3.722981E-13 -3.716625E-13  6.305194E-02
        56 -4.961966E-13 -4.957870E-13  5.517045E-02
        57 -5.061224E-13 -5.059215E-13  4.728895E-02
        58  2.059163E-13  2.058790E-13  3.940746E-02
        59 -4.652648E-15 -4.828764E-15  3.152597E-02
        60 -2.722964E-14 -2.760913E-14  2.364448E-02
        61 -7.701444E-14 -7.747062E-14  1.576298E-02
        62 -3.289049E-15 -3.639043E-15  7.881492E-03
        63 -6.865510E-03 -6.865510E-03  7.881492E-03
        64 -6.865510E-03 -6.865510E-03  1.576298E-02
        65 -6.865510E-03 -6.865510E-03  2.364448E-02
        66 -6.865510E-03 -6.865510E-03  3.152597E-02
        67 -6.865510E-03 -6.865510E-03  3.940746E-02
        68 -6.865510E-03 -6.865510E-03  4.728895E-02
        69 -6.865510E-03 -6.865510E-03  5.517045E-02
        70 -6.865510E-03 -6.865510E-03  6.305194E-02
        71 -6.865510E-03 -6.865510E-03  7.093343E-02
        72 -6.865510E-03 -6.865510E-03  7.881492E-02
        73 -6.865510E-03 -6.865510E-03  8.669641E-02
        74 -6.865510E-03 -6.865510E-03  9.457791E-02
        75 -6.865510E-03 -6.865510E-03  1.024594E-01
        76 -6.865510E-03 -6.865510E-03  1.103409E-01
        77 -6.865509E-03 -6.865509E-03  1.182224E-01
        78 -3.884886E-15 -6.865510E-03  7.881492E-03
        79 -7.777842E-14 -6.865510E-03  1.576298E-02
        80 -2.803960E-14 -6.865510E-03  2.364448E-02
        81 -5.547423E-15 -6.865510E-03  3.152597E-02
        82  2.049624E-13 -6.865510E-03  3.940746E-02
        83 -5.071938E-13 -6.865510E-03  4.728895E-02
        84 -4.973789E-13 -6.865510E-03  5.517045E-02
        85 -3.735596E-13 -6.865510E-03  6.305194E-02
        86  3.306475E-12 -6.865510E-03  7.093343E-02
        87 -4.777106E-12 -6.865510E-03  7.881492E-02
        88 -7.096332E-12 -6.865510E-03  8.669641E-02
        89 -7.013374E-12 -6.865510E-03  9.457791E-02
        90  4.896925E-11 -6.865510E-03  1.024594E-01
        91 -3.186793E-11 -6.865510E-03  1.103409E-01
        92 -1.194441E-10 -6.865509E-03  1.182224E-01
        93 -3.432755E-03 -1.716377E-03  0.000000E+00
        94 -1.716377E-03 -3.432755E-03  0.000000E+00
        95 -3.432755E-03 -3.432755E-03  0.000000E+00
        96 -5.149132E-03 -3.432755E-03  0.000000E+00
        97 -3.432755E-03 -5.149132E-03  0.000000E+00
        98 -3.432755E-03 -1.716377E-03  1.261039E-01
        99 -1.716377E-03 -3.432755E-03  1.261039E-01
       100 -3.432755E-03 -3.432755E-03  1.261039E-01
       101 -5.149132E-03 -3.432755E-03  1.261039E-01
       102 -3.432755E-03 -5.149132E-03  1.261039E-01
       103 -3.432755E-03 -9.609557E-15  7.881492E-03
       104 -1.716377E-03 -6.224211E-14  1.576298E-02
       105 -3.432755E-03 -5.780225E-14  1.576298E-02
       106 -5.149132E-03 -6.195595E-14  1.576298E-02
       107 -3.432755E-03 -7.312501E-14  2.364448E-02
       108 -1.716377E-03  8.256720E-14  3.152597E-02
       109 -3.432755E-03  1.836091E-13  3.152597E-02
       110 -5.149132E-03  8.301296E-14  3.152597E-02
       111 -3.432755E-03  1.361930E-13  3.940746E-02
       112 -1.716377E-03 -3.255905E-13  4.728895E-02
       113 -3.432755E-03 -1.460102E-13  4.728895E-02
       114 -5.149132E-03 -3.250495E-13  4.728895E-02
       115 -3.432755E-03 -8.784909E-13  5.517045E-02
       116 -1.716377E-03  6.085670E-13  6.305194E-02
       117 -3.432755E-03  1.521870E-12  6.305194E-02
       118 -5.149132E-03  6.091779E-13  6.305194E-02
       119 -3.432755E-03  2.043627E-12  7.093343E-02
       120 -1.716377E-03 -2.468505E-12  7.881492E-02
       121 -3.432755E-03  2.521243E-13  7.881492E-02
       122 -5.149132E-03 -2.467828E-12  7.881492E-02
       123 -3.432755E-03 -1.048328E-11  8.669641E-02
       124 -1.716377E-03  4.346352E-12  9.457791E-02
       125 -3.432755E-03  1.433407E-11  9.457791E-02
       126 -5.149132E-03  4.347081E-12  9.457791E-02
       127 -3.432755E-03  3.009022E-11  1.024594E-01
       128 -1.716377E-03  1.629472E-11  1.103409E-01
       129 -3.432755E-03  6.895649E-11  1.103409E-01
       130 -5.149132E-03  1.629551E-11  1.103409E-01
       131 -3.432755E-03 -2.294491E-10  1.182224E-01
       132 -6.865510E-03 -3.432755E-03  7.881492E-03
       133 -6.865510E-03 -1.716377E-03  1.576298E-02
       134 -6.865510E-03 -3.432755E-03  1.576298E-02
       135 -6.865510E-03 -5.149132E-03  1.576298E-02
       136 -6.865510E-03 -3.432755E-03  2.364448E-02
       137 -6.865510E-03 -1.716377E-03  3.152597E-02
       138 -6.865510E-03 -3.432755E-03  3.152597E-02
       139 -6.865510E-03 -5.149132E-03  3.152597E-02
       140 -6.865510E-03 -3.432755E-03  3.940746E-02
       141 -6.865510E-03 -1.716377E-03  4.728895E-02
       142 -6.865510E-03 -3.432755E-03  4.728895E-02
       143 -6.865510E-03 -5.149132E-03  4.728895E-02
       144 -6.865510E-03 -3.432755E-03  5.517045E-02
       145 -6.865510E-03 -1.716377E-03  6.305194E-02
       146 -6.865510E-03 -3.432755E-03  6.305194E-02
       147 -6.865510E-03 -5.149132E-03  6.305194E-02
       148 -6.865510E-03 -3.432755E-03  7.093343E-02
       149 -6.865510E-03 -1.716377E-03  7.881492E-02
       150 -6.865510E-03 -3.432755E-03  7.881492E-02
       151 -6.865510E-03 -5.149132E-03  7.881492E-02
       152 -6.865510E-03 -3.432755E-03  8.669641E-02
       153 -6.865510E-03 -1.716377E-03  9.457791E-02
       154 -6.865510E-03 -3.432755E-03  9.457791E-02
       155 -6.865510E-03 -5.149132E-03  9.457791E-02
       156 -6.865510E-03 -3.432755E-03  1.024594E-01
       157 -6.865510E-03 -1.716377E-03  1.103409E-01
       158 -6.865510E-03 -3.432755E-03  1.103409E-01
       159 -6.865510E-03 -5.149132E-03  1.103409E-01
       160 -6.865509E-03 -3.432755E-03  1.182224E-01
       161 -3.432755E-03 -6.865510E-03  7.881492E-03
       162 -5.149132E-03 -6.865510E-03  1.576298E-02
       163 -3.432755E-03 -6.865510E-03  1.576298E-02
       164 -1.716377E-03 -6.865510E-03  1.576298E-02
       165 -3.432755E-03 -6.865510E-03  2.364448E-02
       166 -5.149132E-03 -6.865510E-03  3.152597E-02
       167 -3.432755E-03 -6.865510E-03  3.152597E-02
       168 -1.716377E-03 -6.865510E-03  3.152597E-02
       169 -3.432755E-03 -6.865510E-03  3.940746E-02
       170 -5.149132E-03 -6.865510E-03  4.728895E-02
       171 -3.432755E-03 -6.865510E-03  4.728895E-02
       172 -1.716377E-03 -6.865510E-03  4.728895E-02
       173 -3.432755E-03 -6.865510E-03  5.517045E-02
       174 -5.149132E-03 -6.865510E-03  6.305194E-02
       175 -3.432755E-03 -6.865510E-03  6.305194E-02
       176 -1.716377E-03 -6.865510E-03  6.305194E-02
       177 -3.432755E-03 -6.865510E-03  7.093343E-02
       178 -5.149132E-03 -6.865510E-03  7.881492E-02
       179 -3.432755E-03 -6.865510E-03  7.881492E-02
       180 -1.716377E-03 -6.865510E-03  7.881492E-02
       181 -3.432755E-03 -6.865510E-03  8.669641E-02
       182 -5.149132E-03 -6.865510E-03  9.457791E-02
       183 -3.432755E-03 -6.865510E-03  9.457791E-02
       184 -1.716377E-03 -6.865510E-03  9.457791E-02
       185 -3.432755E-03 -6.865510E-03  1.024594E-01
       186 -5.149132E-03 -6.865510E-03  1.103409E-01
       187 -3.432755E-03 -6.865510E-03  1.103409E-01
       188 -1.716377E-03 -6.865510E-03  1.103409E-01
       189 -3.432755E-03 -6.865509E-03  1.182224E-01
       190 -9.849892E-15 -3.432755E-03  7.881492E-03
       191 -6.260071E-14 -5.149132E-03  1.576298E-02
       192 -5.813184E-14 -3.432755E-03  1.576298E-02
       193 -6.223798E-14 -1.716377E-03  1.576298E-02
       194 -7.362485E-14 -3.432755E-03  2.364448E-02
       195  8.183584E-14 -5.149132E-03  3.152597E-02
       196  1.828891E-13 -3.432755E-03  3.152597E-02
       197  8.231186E-14 -1.716377E-03  3.152597E-02
       198  1.351835E-13 -3.432755E-03  3.940746E-02
       199 -3.267967E-13 -5.149132E-03  4.728895E-02
       200 -1.472058E-13 -3.432755E-03  4.728895E-02
       201 -3.262767E-13 -1.716377E-03  4.728895E-02
       202 -8.800505E-13 -3.432755E-03  5.517045E-02
       203  6.066333E-13 -5.149132E-03  6.305194E-02
       204  1.519902E-12 -3.432755E-03  6.305194E-02
       205  6.072443E-13 -1.716377E-03  6.305194E-02
       206  2.041392E-12 -3.432755E-03  7.093343E-02
       207 -2.471068E-12 -5.149132E-03  7.881492E-02
       208  2.495654E-13 -3.432755E-03  7.881492E-02
       209 -2.470365E-12 -1.716377E-03  7.881492E-02
       210 -1.048606E-11 -3.432755E-03  8.669641E-02
       211  4.343302E-12 -5.149132E-03  9.457791E-02
       212  1.433100E-11 -3.432755E-03  9.457791E-02
       213  4.344038E-12 -1.716377E-03  9.457791E-02
       214  3.008698E-11 -3.432755E-03  1.024594E-01
       215  1.629132E-11 -5.149132E-03  1.103409E-01
       216  6.895308E-11 -3.432755E-03  1.103409E-01
       217  1.629207E-11 -1.716377E-03  1.103409E-01
       218 -2.294528E-10 -3.432755E-03  1.182224E-01
       219 -3.432755E-03 -3.432755E-03  7.881492E-03
       220 -3.432755E-03 -1.716377E-03  1.576298E-02
       221 -1.716377E-03 -3.432755E-03  1.576298E-02
       222 -3.432755E-03 -3.432755E-03  1.576298E-02
       223 -5.149132E-03 -3.432755E-03  1.576298E-02
       224 -3.432755E-03 -5.149132E-03  1.576298E-02
       225 -3.432755E-03 -3.432755E-03  2.364448E-02
       226 -3.432755E-03 -1.716377E-03  3.152597E-02
       227 -1.716377E-03 -3.432755E-03  3.152597E-02
       228 -3.432755E-03 -3.432755E-03  3.152597E-02
       229 -5.149132E-03 -3.432755E-03  3.152597E-02
       230 -3.432755E-03 -5.149132E-03  3.152597E-02
       231 -3.432755E-03 -3.432755E-03  3.940746E-02
       232 -3.432755E-03 -1.716377E-03  4.728895E-02
       233 -1.716377E-03 -3.432755E-03  4.728895E-02
       234 -3.432755E-03 -3.432755E-03  4.728895E-02
       235 -5.149132E-03 -3.432755E-03  4.728895E-02
       236 -3.432755E-03 -5.149132E-03  4.728895E-02
       237 -3.432755E-03 -3.432755E-03  5.517045E-02
       238 -3.432755E-03 -1.716377E-03  6.305194E-02
       239 -1.716377E-03 -3.432755E-03  6.305194E-02
       240 -3.432755E-03 -3.432755E-03  6.305194E-02
       241 -5.149132E-03 -3.432755E-03  6.305194E-02
       242 -3.432755E-03 -5.149132E-03  6.305194E-02
       243 -3.432755E-03 -3.432755E-03  7.093343E-02
       244 -3.432755E-03 -1.716377E-03  7.881492E-02
       245 -1.716377E-03 -3.432755E-03  7.881492E-02
       246 -3.432755E-03 -3.432755E-03  7.881492E-02
       247 -5.149132E-03 -3.432755E-03  7.881492E-02
       248 -3.432755E-03 -5.149132E-03  7.881492E-02
       249 -3.432755E-03 -3.432755E-03  8.669641E-02
       250 -3.432755E-03 -1.716377E-03  9.457791E-02
       251 -1.716377E-03 -3.432755E-03  9.457791E-02
       252 -3.432755E-03 -3.432755E-03  9.457791E-02
       253 -5.149132E-03 -3.432755E-03  9.457791E-02
       254 -3.432755E-03 -5.149132E-03  9.457791E-02
       255 -3.432755E-03 -3.432755E-03  1.024594E-01
       256 -3.432755E-03 -1.716377E-03  1.103409E-01
       257 -1.716377E-03 -3.432755E-03  1.103409E-01
       258 -3.432755E-03 -3.432755E-03  1.103409E-01
       259 -5.149132E-03 -3.432755E-03  1.103409E-01
       260 -3.432755E-03 -5.149132E-03  1.103409E-01
       261 -3.432755E-03 -3.432755E-03  1.182224E-01

 stresses (elem, integ.pnt.,sxx,syy,szz,sxy,sxz,syz) for set EALL and time  0.1000000E+01

         1   1 -2.796135E-02 -2.796135E-02  9.774320E+02 -1.226338E-09  4.587300E-09  4.579344E-09
         1   2 -2.796136E-02 -2.796136E-02  9.774320E+02 -9.562630E-10  2.525263E-09 -8.119529E-10
         1   3 -2.796136E-02 -2.796136E-02  9.774320E+02 -9.590037E-10 -8.114922E-10  2.522303E-09
         1   4 -2.796135E-02 -2.796135E-02  9.774320E+02 -1.284014E-09 -1.564498E-09 -1.564902E-09
         1   5 -2.796137E-02 -2.796137E-02  9.774320E+02  3.621693E-09  4.125793E-09  4.124971E-09
         1   6 -2.796134E-02 -2.796135E-02  9.774320E+02  2.941998E-09 -2.338057E-09  1.853118E-09
         1   7 -2.796135E-02 -2.796134E-02  9.774320E+02  2.940857E-09  1.850964E-09 -2.343000E-09
         1   8 -2.796136E-02 -2.796136E-02  9.774320E+02  2.997275E-09 -2.989106E-09 -2.989317E-09
         2   1 -2.796136E-02 -2.796136E-02  9.774320E+02  9.586911E-10 -2.522402E-09 -8.098742E-10
         2   2 -2.796135E-02 -2.796135E-02  9.774320E+02  1.220026E-09 -4.586755E-09  4.594383E-09
         2   3 -2.796135E-02 -2.796135E-02  9.774320E+02  1.283750E-09  1.563978E-09 -1.563487E-09
         2   4 -2.796136E-02 -2.796136E-02  9.774320E+02  9.551742E-10  8.105663E-10  2.527417E-09
         2   5 -2.796134E-02 -2.796135E-02  9.774320E+02 -2.941542E-09  2.342424E-09  1.850430E-09
         2   6 -2.796137E-02 -2.796137E-02  9.774320E+02 -3.619547E-09 -4.121712E-09  4.123186E-09
         2   7 -2.796136E-02 -2.796136E-02  9.774320E+02 -2.996466E-09  2.989867E-09 -2.987967E-09
         2   8 -2.796135E-02 -2.796134E-02  9.774320E+02 -2.941841E-09 -1.854069E-09 -2.338479E-09
         3   1 -2.796136E-02 -2.796136E-02  9.774320E+02  9.579282E-10 -8.111779E-10 -2.523214E-09
         3   2 -2.796135E-02 -2.796135E-02  9.774320E+02  1.281939E-09 -1.564918E-09  1.563334E-09
         3   3 -2.796135E-02 -2.796135E-02  9.774320E+02  1.222252E-09  4.585840E-09 -4.588163E-09
         3   4 -2.796136E-02 -2.796136E-02  9.774320E+02  9.563499E-10  2.523607E-09  8.112325E-10
         3   5 -2.796135E-02 -2.796134E-02  9.774320E+02 -2.942278E-09  1.851285E-09  2.336075E-09
         3   6 -2.796136E-02 -2.796136E-02  9.774320E+02 -2.996809E-09 -2.989186E-09  2.988125E-09
         3   7 -2.796137E-02 -2.796137E-02  9.774320E+02 -3.619247E-09  4.123835E-09 -4.123664E-09
         3   8 -2.796134E-02 -2.796135E-02  9.774320E+02 -2.941418E-09 -2.343039E-09 -1.853212E-09
         4   1 -2.796135E-02 -2.796135E-02  9.774320E+02 -1.285838E-09  1.563783E-09  1.563308E-09
         4   2 -2.796136E-02 -2.796136E-02  9.774320E+02 -9.569592E-10  8.105733E-10 -2.524517E-09
         4   3 -2.796136E-02 -2.796136E-02  9.774320E+02 -9.573413E-10 -2.523656E-09  8.114984E-10
         4   4 -2.796135E-02 -2.796135E-02  9.774320E+02 -1.222372E-09 -4.588158E-09 -4.587918E-09
         4   5 -2.796136E-02 -2.796136E-02  9.774320E+02  2.997406E-09  2.987965E-09  2.989780E-09
         4   6 -2.796135E-02 -2.796134E-02  9.774320E+02  2.941450E-09 -1.853664E-09  2.344195E-09
         4   7 -2.796134E-02 -2.796135E-02  9.774320E+02  2.940788E-09  2.337670E-09 -1.853334E-09
         4   8 -2.796137E-02 -2.796137E-02  9.774320E+02  3.620510E-09 -4.123631E-09 -4.122241E-09
         5   1 -2.796135E-02 -2.796135E-02  9.774320E+02 -1.036489E-09 -7.267073E-09 -7.270371E-09
         5   2 -2.796135E-02 -2.796135E-02  9.774320E+02 -5.251708E-10 -7.685856E-09  6.756276E-10
         5   3 -2.796135E-02 -2.796135E-02  9.774320E+02 -5.246657E-10  6.772944E-10 -7.690172E-09
         5   4 -2.796135E-02 -2.796135E-02  9.774320E+02  6.233225E-10  1.378921E-09  1.377751E-09
         5   5 -2.796130E-02 -2.796130E-02  9.774320E+02 -4.650523E-09 -1.571522E-08 -1.571629E-08
         5   6 -2.796139E-02 -2.796139E-02  9.774320E+02 -5.047627E-09  1.212729E-08 -4.667486E-09
         5   7 -2.796139E-02 -2.796139E-02  9.774320E+02 -5.046233E-09 -4.666533E-09  1.212304E-08
         5   8 -2.796134E-02 -2.796134E-02  9.774320E+02 -6.408800E-09  1.162105E-08  1.162202E-08
         6   1 -2.796135E-02 -2.796135E-02  9.774320E+02  5.232167E-10  7.690699E-09  6.768704E-10
         6   2 -2.796135E-02 -2.796135E-02  9.774320E+02  1.037633E-09  7.267032E-09 -7.265778E-09
         6   3 -2.796135E-02 -2.796135E-02  9.774320E+02 -6.210790E-10 -1.378530E-09  1.378520E-09
         6   4 -2.796135E-02 -2.796135E-02  9.774320E+02  5.242169E-10 -6.760783E-10 -7.687191E-09
         6   5 -2.796139E-02 -2.796139E-02  9.774320E+02  5.044985E-09 -1.212521E-08 -4.666786E-09
         6   6 -2.796130E-02 -2.796130E-02  9.774320E+02  4.652973E-09  1.571632E-08 -1.571596E-08
         6   7 -2.796134E-02 -2.796134E-02  9.774320E+02  6.407274E-09 -1.162219E-08  1.162257E-08
         6   8 -2.796139E-02 -2.796139E-02  9.774320E+02  5.046872E-09  4.668261E-09  1.213018E-08
         7   1 -2.796135E-02 -2.796135E-02  9.774320E+02  5.238097E-10  6.770884E-10  7.687041E-09
         7   2 -2.796135E-02 -2.796135E-02  9.774320E+02 -6.220198E-10  1.378207E-09 -1.378396E-09
         7   3 -2.796135E-02 -2.796135E-02  9.774320E+02  1.037557E-09 -7.268616E-09  7.265947E-09
         7   4 -2.796135E-02 -2.796135E-02  9.774320E+02  5.226556E-10 -7.691751E-09 -6.772738E-10
         7   5 -2.796139E-02 -2.796139E-02  9.774320E+02  5.045046E-09 -4.668402E-09 -1.212783E-08
         7   6 -2.796134E-02 -2.796134E-02  9.774320E+02  6.409357E-09  1.162045E-08 -1.162260E-08
         7   7 -2.796130E-02 -2.796130E-02  9.774320E+02  4.651939E-09 -1.571837E-08  1.571433E-08
         7   8 -2.796139E-02 -2.796139E-02  9.774320E+02  5.047828E-09  1.212441E-08  4.668853E-09
         8   1 -2.796135E-02 -2.796135E-02  9.774320E+02  6.224774E-10 -1.379482E-09 -1.378611E-09
         8   2 -2.796135E-02 -2.796135E-02  9.774320E+02 -5.247633E-10 -6.763168E-10  7.690842E-09
         8   3 -2.796135E-02 -2.796135E-02  9.774320E+02 -5.256245E-10  7.686334E-09 -6.758536E-10
         8   4 -2.796135E-02 -2.796135E-02  9.774320E+02 -1.036283E-09  7.267139E-09  7.269491E-09
         8   5 -2.796134E-02 -2.796134E-02  9.774320E+02 -6.406848E-09 -1.162210E-08 -1.162229E-08
         8   6 -2.796139E-02 -2.796139E-02  9.774320E+02 -5.047822E-09  4.668376E-09 -1.212515E-08
         8   7 -2.796139E-02 -2.796139E-02  9.774320E+02 -5.045536E-09 -1.212783E-08  4.668615E-09
         8   8 -2.796130E-02 -2.796130E-02  9.774320E+02 -4.652026E-09  1.571444E-08  1.571604E-08
         9   1 -2.796139E-02 -2.796139E-02  9.774320E+02 -4.028242E-09  2.441633E-08  2.441547E-08
         9   2 -2.796136E-02 -2.796135E-02  9.774320E+02 -2.778003E-09  2.021323E-08 -7.119231E-09
         9   3 -2.796135E-02 -2.796136E-02  9.774320E+02 -2.778804E-09 -7.122311E-09  2.021156E-08
         9   4 -2.796137E-02 -2.796137E-02  9.774320E+02 -2.734404E-09 -6.387332E-09 -6.388922E-09
         9   5 -2.796147E-02 -2.796147E-02  9.774320E+02  2.512861E-08  3.965842E-08  3.965545E-08
         9   6 -2.796127E-02 -2.796129E-02  9.774320E+02  2.305540E-08 -4.859516E-08  3.189606E-08
         9   7 -2.796129E-02 -2.796127E-02  9.774320E+02  2.305424E-08  3.189927E-08 -4.859877E-08
         9   8 -2.796139E-02 -2.796139E-02  9.774320E+02  2.072142E-08 -3.290850E-08 -3.290705E-08
        10   1 -2.796136E-02 -2.796135E-02  9.774320E+02  2.778188E-09 -2.020954E-08 -7.120398E-09
        10   2 -2.796139E-02 -2.796139E-02  9.774320E+02  4.028602E-09 -2.441540E-08  2.441687E-08
        10   3 -2.796137E-02 -2.796137E-02  9.774320E+02  2.734774E-09  6.390343E-09 -6.388494E-09
        10   4 -2.796135E-02 -2.796136E-02  9.774320E+02  2.778595E-09  7.118554E-09  2.021365E-08
        10   5 -2.796127E-02 -2.796129E-02  9.774320E+02 -2.305412E-08  4.860035E-08  3.189726E-08
        10   6 -2.796147E-02 -2.796147E-02  9.774320E+02 -2.512964E-08 -3.965853E-08  3.965840E-08
        10   7 -2.796139E-02 -2.796139E-02  9.774320E+02 -2.072102E-08  3.290979E-08 -3.290601E-08
        10   8 -2.796129E-02 -2.796127E-02  9.774320E+02 -2.305422E-08 -3.189583E-08 -4.859462E-08
        11   1 -2.796135E-02 -2.796136E-02  9.774320E+02  2.777953E-09 -7.122678E-09 -2.021372E-08
        11   2 -2.796137E-02 -2.796137E-02  9.774320E+02  2.734079E-09 -6.388048E-09  6.386909E-09
        11   3 -2.796139E-02 -2.796139E-02  9.774320E+02  4.028328E-09  2.441506E-08 -2.441760E-08
        11   4 -2.796136E-02 -2.796135E-02  9.774320E+02  2.778282E-09  2.021012E-08  7.121382E-09
        11   5 -2.796129E-02 -2.796127E-02  9.774320E+02 -2.305388E-08  3.189848E-08  4.859594E-08
        11   6 -2.796139E-02 -2.796139E-02  9.774320E+02 -2.072281E-08 -3.291094E-08  3.290728E-08
        11   7 -2.796147E-02 -2.796147E-02  9.774320E+02 -2.512878E-08  3.965372E-08 -3.965704E-08
        11   8 -2.796127E-02 -2.796129E-02  9.774320E+02 -2.305538E-08 -4.859992E-08 -3.189945E-08
        12   1 -2.796137E-02 -2.796137E-02  9.774320E+02 -2.733130E-09  6.388116E-09  6.389668E-09
        12   2 -2.796135E-02 -2.796136E-02  9.774320E+02 -2.777894E-09  7.119052E-09 -2.020846E-08
        12   3 -2.796136E-02 -2.796135E-02  9.774320E+02 -2.778635E-09 -2.021385E-08  7.120779E-09
        12   4 -2.796139E-02 -2.796139E-02  9.774320E+02 -4.029167E-09 -2.441715E-08 -2.441644E-08
        12   5 -2.796139E-02 -2.796139E-02  9.774320E+02  2.072086E-08  3.290778E-08  3.290752E-08
        12   6 -2.796129E-02 -2.796127E-02  9.774320E+02  2.305514E-08 -3.189832E-08  4.859869E-08
        12   7 -2.796127E-02 -2.796129E-02  9.774320E+02  2.305360E-08  4.859729E-08 -3.189870E-08
        12   8 -2.796147E-02 -2.796147E-02  9.774320E+02  2.512826E-08 -3.965795E-08 -3.965738E-08
        13   1 -2.796128E-02 -2.796128E-02  9.774320E+02 -1.371417E-08 -4.134178E-08 -4.134317E-08
        13   2 -2.796133E-02 -2.796134E-02  9.774320E+02 -7.321449E-09 -4.444412E-08 -6.434401E-10
        13   3 -2.796134E-02 -2.796133E-02  9.774320E+02 -7.319731E-09 -6.442840E-10 -4.444629E-08
        13   4 -2.796133E-02 -2.796133E-02  9.774320E+02  7.509202E-10  1.102573E-08  1.102435E-08
        13   5 -2.796102E-02 -2.796102E-02  9.774320E+02 -5.981739E-09 -1.881162E-07 -1.881173E-07
        13   6 -2.796157E-02 -2.796159E-02  9.774320E+02 -2.547655E-08  1.596090E-07 -7.086089E-08
        13   7 -2.796159E-02 -2.796157E-02  9.774320E+02 -2.547655E-08 -7.086116E-08  1.596068E-07
        13   8 -2.796121E-02 -2.796121E-02  9.774320E+02 -3.894524E-08  1.290531E-07  1.290530E-07
        14   1 -2.796133E-02 -2.796134E-02  9.774320E+02  7.321336E-09  4.444873E-08 -6.434794E-10
        14   2 -2.796128E-02 -2.796128E-02  9.774320E+02  1.371326E-08  4.134223E-08 -4.134051E-08
        14   3 -2.796133E-02 -2.796133E-02  9.774320E+02 -7.527815E-10 -1.102338E-08  1.102484E-08
        14   4 -2.796134E-02 -2.796133E-02  9.774320E+02  7.320863E-09  6.427832E-10 -4.444716E-08
        14   5 -2.796157E-02 -2.796159E-02  9.774320E+02  2.547860E-08 -1.596082E-07 -7.085983E-08
        14   6 -2.796102E-02 -2.796102E-02  9.774320E+02  5.981211E-09  1.881148E-07 -1.881159E-07
        14   7 -2.796121E-02 -2.796121E-02  9.774320E+02  3.894400E-08 -1.290513E-07  1.290542E-07
        14   8 -2.796159E-02 -2.796157E-02  9.774320E+02  2.547828E-08  7.086009E-08  1.596098E-07
        15   1 -2.796134E-02 -2.796133E-02  9.774320E+02  7.321717E-09 -6.435301E-10  4.444384E-08
        15   2 -2.796133E-02 -2.796133E-02  9.774320E+02 -7.506162E-10  1.102405E-08 -1.102540E-08
        15   3 -2.796128E-02 -2.796128E-02  9.774320E+02  1.371281E-08 -4.134429E-08  4.134294E-08
        15   4 -2.796133E-02 -2.796134E-02  9.774320E+02  7.322517E-09 -4.444901E-08  6.434244E-10
        15   5 -2.796159E-02 -2.796157E-02  9.774320E+02  2.547809E-08 -7.086316E-08 -1.596077E-07
        15   6 -2.796121E-02 -2.796121E-02  9.774320E+02  3.894377E-08  1.290516E-07 -1.290518E-07
        15   7 -2.796102E-02 -2.796102E-02  9.774320E+02  5.980372E-09 -1.881146E-07  1.881152E-07
        15   8 -2.796157E-02 -2.796159E-02  9.774320E+02  2.547759E-08  1.596059E-07  7.086369E-08
        16   1 -2.796133E-02 -2.796133E-02  9.774320E+02  7.508783E-10 -1.102542E-08 -1.102615E-08
        16   2 -2.796134E-02 -2.796133E-02  9.774320E+02 -7.321125E-09  6.428057E-10  4.444634E-08
        16   3 -2.796133E-02 -2.796134E-02  9.774320E+02 -7.319652E-09  4.444457E-08  6.445559E-10
        16   4 -2.796128E-02 -2.796128E-02  9.774320E+02 -1.371335E-08  4.134224E-08  4.134449E-08
        16   5 -2.796121E-02 -2.796121E-02  9.774320E+02 -3.894567E-08 -1.290515E-07 -1.290510E-07
        16   6 -2.796159E-02 -2.796157E-02  9.774320E+02 -2.547650E-08  7.086046E-08 -1.596050E-07
        16   7 -2.796157E-02 -2.796159E-02  9.774320E+02 -2.547656E-08 -1.596076E-07  7.086252E-08
        16   8 -2.796102E-02 -2.796102E-02  9.774320E+02 -5.981741E-09  1.881144E-07  1.881148E-07
        17   1 -2.796168E-02 -2.796168E-02  9.774320E+02 -5.959896E-08  1.817465E-07  1.817468E-07
        17   2 -2.796141E-02 -2.796134E-02  9.774320E+02 -4.122085E-08  1.183418E-07 -6.135854E-08
        17   3 -2.796134E-02 -2.796141E-02  9.774320E+02 -4.122039E-08 -6.136120E-08  1.183377E-07
        17   4 -2.796151E-02 -2.796151E-02  9.774320E+02 -2.681333E-08 -6.661011E-08 -6.660842E-08
        17   5 -2.796200E-02 -2.796200E-02  9.774320E+02  1.807606E-07  4.755486E-07  4.755482E-07
        17   6 -2.796094E-02 -2.796090E-02  9.774320E+02  1.840745E-07 -5.917393E-07  3.960174E-07
        17   7 -2.796090E-02 -2.796094E-02  9.774320E+02  1.840742E-07  3.960148E-07 -5.917403E-07
        17   8 -2.796172E-02 -2.796172E-02  9.774320E+02  1.517568E-07 -3.520408E-07 -3.520405E-07
        18   1 -2.796141E-02 -2.796134E-02  9.774320E+02  4.122147E-08 -1.183385E-07 -6.135896E-08
        18   2 -2.796168E-02 -2.796168E-02  9.774320E+02  5.959744E-08 -1.817453E-07  1.817480E-07
        18   3 -2.796151E-02 -2.796151E-02  9.774320E+02  2.681129E-08  6.660787E-08 -6.660856E-08
        18   4 -2.796134E-02 -2.796141E-02  9.774320E+02  4.122213E-08  6.135738E-08  1.183426E-07
        18   5 -2.796094E-02 -2.796090E-02  9.774320E+02 -1.840731E-07  5.917396E-07  3.960182E-07
        18   6 -2.796200E-02 -2.796200E-02  9.774320E+02 -1.807624E-07 -4.755484E-07  4.755506E-07
        18   7 -2.796172E-02 -2.796172E-02  9.774320E+02 -1.517575E-07  3.520411E-07 -3.520420E-07
        18   8 -2.796090E-02 -2.796094E-02  9.774320E+02 -1.840729E-07 -3.960180E-07 -5.917389E-07
        19   1 -2.796134E-02 -2.796141E-02  9.774320E+02  4.122209E-08 -6.136050E-08 -1.183448E-07
        19   2 -2.796151E-02 -2.796151E-02  9.774320E+02  2.681141E-08 -6.660943E-08  6.660588E-08
        19   3 -2.796168E-02 -2.796168E-02  9.774320E+02  5.959764E-08  1.817452E-07 -1.817471E-07
        19   4 -2.796141E-02 -2.796134E-02  9.774320E+02  4.122200E-08  1.183375E-07  6.136345E-08
        19   5 -2.796090E-02 -2.796094E-02  9.774320E+02 -1.840731E-07  3.960124E-07  5.917369E-07
        19   6 -2.796172E-02 -2.796172E-02  9.774320E+02 -1.517582E-07 -3.520435E-07  3.520407E-07
        19   7 -2.796200E-02 -2.796200E-02  9.774320E+02 -1.807617E-07  4.755484E-07 -4.755532E-07
        19   8 -2.796094E-02 -2.796090E-02  9.774320E+02 -1.840731E-07 -5.917380E-07 -3.960158E-07
        20   1 -2.796151E-02 -2.796151E-02  9.774320E+02 -2.681283E-08  6.660941E-08  6.660698E-08
        20   2 -2.796134E-02 -2.796141E-02  9.774320E+02 -4.122073E-08  6.135938E-08 -1.183404E-07
        20   3 -2.796141E-02 -2.796134E-02  9.774320E+02 -4.122101E-08 -1.183430E-07  6.136152E-08
        20   4 -2.796168E-02 -2.796168E-02  9.774320E+02 -5.959985E-08 -1.817487E-07 -1.817465E-07
        20   5 -2.796172E-02 -2.796172E-02  9.774320E+02  1.517566E-07  3.520404E-07  3.520393E-07
        20   6 -2.796090E-02 -2.796094E-02  9.774320E+02  1.840750E-07 -3.960200E-07  5.917415E-07
        20   7 -2.796094E-02 -2.796090E-02  9.774320E+02  1.840743E-07  5.917376E-07 -3.960157E-07
        20   8 -2.796200E-02 -2.796200E-02  9.774320E+02  1.807614E-07 -4.755499E-07 -4.755496E-07
        21   1 -2.796073E-02 -2.796073E-02  9.774320E+02 -1.326470E-07 -2.195502E-07 -2.195512E-07