
 displacements (vx,vy,vz) for set N1 and time  0.6369308E-07

       100 -1.171656E-22  3.983201E-21  5.021330E-05

 displacements (vx,vy,vz) for set N1 and time  0.1273862E-06

       100 -2.896995E-21  4.217250E-20  1.907340E-04

 displacements (vx,vy,vz) for set N1 and time  0.1910792E-06

       100 -1.236682E-20  1.203403E-19  4.000235E-04

 displacements (vx,vy,vz) for set N1 and time  0.2547723E-06

       100 -2.421863E-20  2.001311E-19  6.643295E-04

 displacements (vx,vy,vz) for set N1 and time  0.3184654E-06

       100 -3.318354E-20  2.632463E-19  9.861330E-04

 displacements (vx,vy,vz) for set N1 and time  0.3821585E-06

       100 -4.278912E-20  3.160020E-19  1.373909E-03

 displacements (vx,vy,vz) for set N1 and time  0.4458516E-06

       100 -5.559101E-20  4.008975E-19  1.827493E-03

 displacements (vx,vy,vz) for set N1 and time  0.5095446E-06

       100 -7.266841E-20  5.511019E-19  2.333874E-03

 displacements (vx,vy,vz) for set N1 and time  0.5732377E-06

       100 -9.668608E-20  7.421440E-19  2.877545E-03

 displacements (vx,vy,vz) for set N1 and time  0.6369308E-06

       100 -1.269830E-19  9.442080E-19  3.453275E-03

 displacements (vx,vy,vz) for set N1 and time  0.7006239E-06

       100 -1.615139E-19  1.127909E-18  4.067071E-03

 displacements (vx,vy,vz) for set N1 and time  0.7643170E-06

       100 -2.060132E-19  1.289446E-18  4.724989E-03

 displacements (vx,vy,vz) for set N1 and time  0.8280100E-06

       100 -3.230077E-20  8.927519E-19  5.423099E-03

 displacements (vx,vy,vz) for set N1 and time  0.8917031E-06

       100  5.579362E-19  7.345331E-19  6.149792E-03

 displacements (vx,vy,vz) for set N1 and time  0.9553962E-06

       100  4.249125E-19  2.684644E-18  6.896934E-03

 displacements (vx,vy,vz) for set N1 and time  0.1019089E-05

       100 -2.898442E-18  4.306450E-18  7.666491E-03

 displacements (vx,vy,vz) for set N1 and time  0.1082782E-05

       100 -2.846861E-17  3.262635E-18  8.465163E-03

 displacements (vx,vy,vz) for set N1 and time  0.1146475E-05

       100 -5.118463E-17  8.793582E-19  9.293796E-03

 displacements (vx,vy,vz) for set N1 and time  0.1210169E-05

       100  1.017674E-15 -6.302510E-18  1.014417E-02

 displacements (vx,vy,vz) for set N1 and time  0.1273862E-05

       100  9.390698E-15 -2.161330E-18  1.100670E-02

 displacements (vx,vy,vz) for set N1 and time  0.1337555E-05

       100  3.945258E-14  1.648031E-16  1.187964E-02

 displacements (vx,vy,vz) for set N1 and time  0.1401248E-05

       100  8.531412E-14  9.380498E-16  1.276901E-02

 displacements (vx,vy,vz) for set N1 and time  0.1464941E-05

       100  1.933347E-14  2.842681E-15  1.367967E-02

 displacements (vx,vy,vz) for set N1 and time  0.1528634E-05

       100 -4.615104E-13  3.414768E-15  1.460832E-02

 displacements (vx,vy,vz) for set N1 and time  0.1592327E-05

       100 -1.368428E-12 -1.364506E-14  1.554653E-02

 displacements (vx,vy,vz) for set N1 and time  0.1656020E-05

       100 -1.309648E-12 -9.349349E-14  1.648999E-02

 displacements (vx,vy,vz) for set N1 and time  0.1719713E-05

       100  2.320209E-12 -3.020312E-13  1.744274E-02

 displacements (vx,vy,vz) for set N1 and time  0.1783406E-05

       100  8.644582E-12 -6.520412E-13  1.841174E-02

 displacements (vx,vy,vz) for set N1 and time  0.1847099E-05

       100  6.753315E-12 -9.597176E-13  1.939826E-02

 displacements (vx,vy,vz) for set N1 and time  0.1910792E-05

       100 -1.869537E-11 -7.462939E-13  2.039642E-02

 displacements (vx,vy,vz) for set N1 and time  0.1974485E-05

       100 -5.811742E-11  6.416428E-13  2.140010E-02

 displacements (vx,vy,vz) for set N1 and time  0.2038179E-05

       100 -4.658722E-11  3.819914E-12  2.240984E-02

 displacements (vx,vy,vz) for set N1 and time  0.2101872E-05

       100  1.019950E-10  9.687624E-12  2.343145E-02

 displacements (vx,vy,vz) for set N1 and time  0.2165565E-05

       100  3.524223E-10  2.027129E-11  2.446844E-02

 displacements (vx,vy,vz) for set N1 and time  0.2229258E-05

       100  4.022933E-10  3.722390E-11  2.551734E-02

 displacements (vx,vy,vz) for set N1 and time  0.2292951E-05

       100 -1.794932E-10  5.299983E-11  2.657156E-02

 displacements (vx,vy,vz) for set N1 and time  0.2356644E-05

       100 -1.365707E-09  3.514583E-11  2.762875E-02

 displacements (vx,vy,vz) for set N1 and time  0.2420337E-05

       100 -2.103620E-09 -8.001905E-11  2.869271E-02

 displacements (vx,vy,vz) for set N1 and time  0.2484030E-05

       100 -7.742107E-10 -3.500334E-10  2.976767E-02

 displacements (vx,vy,vz) for set N1 and time  0.2547723E-05

       100  2.918137E-09 -7.157773E-10  3.085195E-02

 displacements (vx,vy,vz) for set N1 and time  0.2611416E-05

       100  6.115055E-09 -8.525237E-10  3.193880E-02

 displacements (vx,vy,vz) for set N1 and time  0.2675109E-05

       100  4.002661E-09 -1.341860E-10  3.302336E-02

 displacements (vx,vy,vz) for set N1 and time  0.2738802E-05

       100 -4.870781E-09  2.075004E-09  3.410754E-02

 displacements (vx,vy,vz) for set N1 and time  0.2802496E-05

       100 -1.357422E-08  5.730196E-09  3.519718E-02

 displacements (vx,vy,vz) for set N1 and time  0.2866189E-05

       100 -9.861121E-09  9.361721E-09  3.629509E-02

 displacements (vx,vy,vz) for set N1 and time  0.2929882E-05

       100  1.079951E-08  1.011426E-08  3.739826E-02

 displacements (vx,vy,vz) for set N1 and time  0.2993575E-05

       100  3.388332E-08  5.341705E-09  3.850216E-02

 displacements (vx,vy,vz) for set N1 and time  0.3057268E-05

       100  3.308100E-08 -4.665205E-09  3.960656E-02

 displacements (vx,vy,vz) for set N1 and time  0.3120961E-05

       100 -3.456521E-09 -1.499593E-08  4.071583E-02

 displacements (vx,vy,vz) for set N1 and time  0.3184654E-05

       100 -5.169682E-08 -1.824569E-08  4.183346E-02

 displacements (vx,vy,vz) for set N1 and time  0.3248347E-05

       100 -6.298856E-08 -1.102460E-08  4.295759E-02

 displacements (vx,vy,vz) for set N1 and time  0.3312040E-05

       100 -1.006263E-08 -7.305006E-10  4.408294E-02

 displacements (vx,vy,vz) for set N1 and time  0.3375733E-05

       100  7.102244E-08 -5.085775E-09  4.520659E-02

 displacements (vx,vy,vz) for set N1 and time  0.3439426E-05

       100  9.572107E-08 -4.004572E-08  4.633068E-02

 displacements (vx,vy,vz) for set N1 and time  0.3503119E-05

       100  8.674250E-09 -1.015381E-07  4.745888E-02

 displacements (vx,vy,vz) for set N1 and time  0.3566813E-05

       100 -1.435470E-07 -1.564112E-07  4.859117E-02

 displacements (vx,vy,vz) for set N1 and time  0.3630506E-05

       100 -2.334932E-07 -1.579721E-07  4.972341E-02

 displacements (vx,vy,vz) for set N1 and time  0.3694199E-05

       100 -1.729395E-07 -8.489134E-08  5.085199E-02

 displacements (vx,vy,vz) for set N1 and time  0.3757892E-05

       100 -1.176775E-08  2.314356E-08  5.197787E-02

 displacements (vx,vy,vz) for set N1 and time  0.3821585E-05

       100  1.039443E-07  7.048259E-08  5.310509E-02

 displacements (vx,vy,vz) for set N1 and time  0.3885278E-05

       100  7.601764E-08 -3.257494E-08  5.423569E-02

 displacements (vx,vy,vz) for set N1 and time  0.3948971E-05

       100 -5.528896E-08 -2.817058E-07  5.536717E-02

 displacements (vx,vy,vz) for set N1 and time  0.4012664E-05

       100 -1.620574E-07 -5.353392E-07  5.649553E-02

 displacements (vx,vy,vz) for set N1 and time  0.4076357E-05

       100 -1.496685E-07 -5.768159E-07  5.761993E-02

 displacements (vx,vy,vz) for set N1 and time  0.4140050E-05

       100 -2.336777E-08 -2.674484E-07  5.874353E-02

 displacements (vx,vy,vz) for set N1 and time  0.4203743E-05

       100  1.313036E-07  3.125897E-07  5.986968E-02

 displacements (vx,vy,vz) for set N1 and time  0.4267436E-05

       100  2.064772E-07  8.621836E-07  6.099831E-02

 displacements (vx,vy,vz) for set N1 and time  0.4331129E-05

       100  1.351834E-07  1.040862E-06  6.212682E-02

 displacements (vx,vy,vz) for set N1 and time  0.4394823E-05

       100 -5.941830E-08  7.290131E-07  6.325387E-02

 displacements (vx,vy,vz) for set N1 and time  0.4458516E-05

       100 -2.672047E-07  1.628448E-07  6.438112E-02

 displacements (vx,vy,vz) for set N1 and time  0.4522209E-05

       100 -3.595163E-07 -1.963856E-07  6.551075E-02

 displacements (vx,vy,vz) for set N1 and time  0.4585902E-05

       100 -2.735446E-07  4.089750E-10  6.664183E-02

 displacements (vx,vy,vz) for set N1 and time  0.4649595E-05

       100 -5.124603E-08  6.903789E-07  6.777045E-02

 displacements (vx,vy,vz) for set N1 and time  0.4713288E-05

       100  1.839278E-07  1.394256E-06  6.889369E-02

 displacements (vx,vy,vz) for set N1 and time  0.4776981E-05

       100  2.914877E-07  1.558172E-06  7.001270E-02

 displacements (vx,vy,vz) for set N1 and time  0.4840674E-05

       100  1.967032E-07  1.003144E-06  7.113124E-02

 displacements (vx,vy,vz) for set N1 and time  0.4904367E-05

       100 -3.789245E-08  1.212305E-07  7.225136E-02

 displacements (vx,vy,vz) for set N1 and time  0.4968060E-05

       100 -2.190951E-07 -3.742238E-07  7.337132E-02

 displacements (vx,vy,vz) for set N1 and time  0.5000000E-05

       100 -2.297828E-07 -3.055705E-07  7.393195E-02
