
 displacements (vx,vy,vz) for set NALL and time  0.1000000E+01

         1  0.000000E+00  0.000000E+00  0.000000E+00
         2 -7.423281E-02  0.000000E+00  0.000000E+00
         3 -7.423281E-02 -7.423281E-02  0.000000E+00
         4 -3.337307E-11 -7.423281E-02  0.000000E+00
         5 -1.040618E-10  4.017344E-11  1.415438E+00
         6 -7.423281E-02  3.578523E-11  1.415438E+00
         7 -7.423281E-02 -7.423281E-02  1.415438E+00
         8 -1.002094E-10 -7.423281E-02  1.415438E+00
         9 -1.855820E-02  1.082373E-11  0.000000E+00
        10 -3.711640E-02  1.236380E-11  0.000000E+00
        11 -5.567461E-02  1.051393E-11  0.000000E+00
        12 -7.423281E-02 -1.855820E-02  0.000000E+00
        13 -7.423281E-02 -3.711640E-02  0.000000E+00
        14 -7.423281E-02 -5.567461E-02  0.000000E+00
        15 -5.567461E-02 -7.423281E-02  0.000000E+00
        16 -3.711640E-02 -7.423281E-02  0.000000E+00
        17 -1.855820E-02 -7.423281E-02  0.000000E+00
        18 -3.372432E-11 -5.567461E-02  0.000000E+00
        19 -3.255995E-11 -3.711640E-02  0.000000E+00
        20 -2.364026E-11 -1.855820E-02  0.000000E+00
        21 -1.855820E-02  3.923282E-11  1.415438E+00
        22 -3.711640E-02  3.802964E-11  1.415438E+00
        23 -5.567461E-02  3.679742E-11  1.415438E+00
        24 -7.423281E-02 -1.855820E-02  1.415438E+00
        25 -7.423281E-02 -3.711640E-02  1.415438E+00
        26 -7.423281E-02 -5.567461E-02  1.415438E+00
        27 -5.567461E-02 -7.423281E-02  1.415438E+00
        28 -3.711640E-02 -7.423281E-02  1.415438E+00
        29 -1.855820E-02 -7.423281E-02  1.415438E+00
        30 -1.011800E-10 -5.567461E-02  1.415438E+00
        31 -1.022933E-10 -3.711640E-02  1.415438E+00
        32 -1.032892E-10 -1.855820E-02  1.415438E+00
        33 -7.423281E-02  1.613898E-11  8.846490E-02
        34 -7.423281E-02  1.643752E-11  1.769298E-01
        35 -7.423281E-02  1.950000E-11  2.653947E-01
        36 -7.423281E-02  1.863459E-11  3.538596E-01
        37 -7.423281E-02  2.117613E-11  4.423245E-01
        38 -7.423281E-02  2.199632E-11  5.307894E-01
        39 -7.423281E-02  2.388879E-11  6.192543E-01
        40 -7.423281E-02  2.486727E-11  7.077192E-01
        41 -7.423281E-02  2.670140E-11  7.961841E-01
        42 -7.423281E-02  2.786001E-11  8.846490E-01
        43 -7.423281E-02  2.949912E-11  9.731139E-01
        44 -7.423281E-02  3.068640E-11  1.061579E+00
        45 -7.423281E-02  3.238083E-11  1.150044E+00
        46 -7.423281E-02  3.354201E-11  1.238509E+00
        47 -7.423281E-02  3.520928E-11  1.326974E+00
        48 -9.842393E-11  3.729959E-11  1.326974E+00
        49 -9.332194E-11  3.562515E-11  1.238509E+00
        50 -8.828547E-11  3.343235E-11  1.150044E+00
        51 -8.312873E-11  3.175007E-11  1.061579E+00
        52 -7.824894E-11  2.961950E-11  9.731139E-01
        53 -7.280328E-11  2.783961E-11  8.846490E-01
        54 -6.808407E-11  2.565040E-11  7.961841E-01
        55 -6.231768E-11  2.393463E-11  7.077192E-01
        56 -5.806867E-11  2.172397E-11  6.192543E-01
        57 -5.180005E-11  2.015822E-11  5.307894E-01
        58 -4.776300E-11  1.731121E-11  4.423245E-01
        59 -4.003521E-11  1.579338E-11  3.538596E-01
        60 -3.948637E-11  1.374758E-11  2.653947E-01
        61 -3.030274E-11  1.378136E-11  1.769298E-01
        62 -2.818183E-11  5.739016E-12  8.846490E-02
        63 -7.423281E-02 -7.423281E-02  8.846490E-02
        64 -7.423281E-02 -7.423281E-02  1.769298E-01
        65 -7.423281E-02 -7.423281E-02  2.653947E-01
        66 -7.423281E-02 -7.423281E-02  3.538596E-01
        67 -7.423281E-02 -7.423281E-02  4.423245E-01
        68 -7.423281E-02 -7.423281E-02  5.307894E-01
        69 -7.423281E-02 -7.423281E-02  6.192543E-01
        70 -7.423281E-02 -7.423281E-02  7.077192E-01
        71 -7.423281E-02 -7.423281E-02  7.961841E-01
        72 -7.423281E-02 -7.423281E-02  8.846490E-01
        73 -7.423281E-02 -7.423281E-02  9.731139E-01
        74 -7.423281E-02 -7.423281E-02  1.061579E+00
        75 -7.423281E-02 -7.423281E-02  1.150044E+00
        76 -7.423281E-02 -7.423281E-02  1.238509E+00
        77 -7.423281E-02 -7.423281E-02  1.326974E+00
        78 -3.638903E-11 -7.423281E-02  8.846490E-02
        79 -3.783349E-11 -7.423281E-02  1.769298E-01
        80 -4.255002E-11 -7.423281E-02  2.653947E-01
        81 -4.602231E-11 -7.423281E-02  3.538596E-01
        82 -5.080827E-11 -7.423281E-02  4.423245E-01
        83 -5.491129E-11 -7.423281E-02  5.307894E-01
        84 -5.965881E-11 -7.423281E-02  6.192543E-01
        85 -6.409348E-11 -7.423281E-02  7.077192E-01
        86 -6.885028E-11 -7.423281E-02  7.961841E-01
        87 -7.333441E-11 -7.423281E-02  8.846490E-01
        88 -7.794204E-11 -7.423281E-02  9.731139E-01
        89 -8.240183E-11 -7.423281E-02  1.061579E+00
        90 -8.708585E-11 -7.423281E-02  1.150044E+00
        91 -9.152940E-11 -7.423281E-02  1.238509E+00
        92 -9.616343E-11 -7.423281E-02  1.326974E+00
        93 -3.711640E-02 -1.855820E-02  0.000000E+00
        94 -1.855820E-02 -3.711640E-02  0.000000E+00
        95 -3.711640E-02 -3.711640E-02  0.000000E+00
        96 -5.567461E-02 -3.711640E-02  0.000000E+00
        97 -3.711640E-02 -5.567461E-02  0.000000E+00
        98 -3.711640E-02 -1.855820E-02  1.415438E+00
        99 -1.855820E-02 -3.711640E-02  1.415438E+00
       100 -3.711640E-02 -3.711640E-02  1.415438E+00
       101 -5.567461E-02 -3.711640E-02  1.415438E+00
       102 -3.711640E-02 -5.567461E-02  1.415438E+00
       103 -3.711640E-02  1.205715E-11  8.846490E-02
       104 -1.855820E-02  1.343512E-11  1.769298E-01
       105 -3.711640E-02  1.530695E-11  1.769298E-01
       106 -5.567461E-02  1.477643E-11  1.769298E-01
       107 -3.711640E-02  1.593625E-11  2.653947E-01
       108 -1.855820E-02  1.708922E-11  3.538596E-01
       109 -3.711640E-02  1.779157E-11  3.538596E-01
       110 -5.567461E-02  1.848839E-11  3.538596E-01
       111 -3.711640E-02  1.931668E-11  4.423245E-01
       112 -1.855820E-02  2.058868E-11  5.307894E-01
       113 -3.711640E-02  2.113895E-11  5.307894E-01
       114 -5.567461E-02  2.150270E-11  5.307894E-01
       115 -3.711640E-02  2.273480E-11  6.192543E-01
       116 -1.855820E-02  2.422526E-11  7.077192E-01
       117 -3.711640E-02  2.449371E-11  7.077192E-01
       118 -5.567461E-02  2.470119E-11  7.077192E-01
       119 -3.711640E-02  2.614496E-11  7.961841E-01
       120 -1.855820E-02  2.785006E-11  8.846490E-01
       121 -3.711640E-02  2.788868E-11  8.846490E-01
       122 -5.567461E-02  2.786826E-11  8.846490E-01
       123 -3.711640E-02  2.953376E-11  9.731139E-01
       124 -1.855820E-02  3.149969E-11  1.061579E+00
       125 -3.711640E-02  3.125477E-11  1.061579E+00
       126 -5.567461E-02  3.097694E-11  1.061579E+00
       127 -3.711640E-02  3.289529E-11  1.150044E+00
       128 -1.855820E-02  3.512763E-11  1.238509E+00
       129 -3.711640E-02  3.461569E-11  1.238509E+00
       130 -5.567461E-02  3.408008E-11  1.238509E+00
       131 -3.711640E-02  3.625599E-11  1.326974E+00
       132 -7.423281E-02 -3.711640E-02  8.846490E-02
       133 -7.423281E-02 -1.855820E-02  1.769298E-01
       134 -7.423281E-02 -3.711640E-02  1.769298E-01
       135 -7.423281E-02 -5.567461E-02  1.769298E-01
       136 -7.423281E-02 -3.711640E-02  2.653947E-01
       137 -7.423281E-02 -1.855820E-02  3.538596E-01
       138 -7.423281E-02 -3.711640E-02  3.538596E-01
       139 -7.423281E-02 -5.567461E-02  3.538596E-01
       140 -7.423281E-02 -3.711640E-02  4.423245E-01
       141 -7.423281E-02 -1.855820E-02  5.307894E-01
       142 -7.423281E-02 -3.711640E-02  5.307894E-01
       143 -7.423281E-02 -5.567461E-02  5.307894E-01
       144 -7.423281E-02 -3.711640E-02  6.192543E-01
       145 -7.423281E-02 -1.855820E-02  7.077192E-01
       146 -7.423281E-02 -3.711640E-02  7.077192E-01
       147 -7.423281E-02 -5.567461E-02  7.077192E-01
       148 -7.423281E-02 -3.711640E-02  7.961841E-01
       149 -7.423281E-02 -1.855820E-02  8.846490E-01
       150 -7.423281E-02 -3.711640E-02  8.846490E-01
       151 -7.423281E-02 -5.567461E-02  8.846490E-01
       152 -7.423281E-02 -3.711640E-02  9.731139E-01
       153 -7.423281E-02 -1.855820E-02  1.061579E+00
       154 -7.423281E-02 -3.711640E-02  1.061579E+00
       155 -7.423281E-02 -5.567461E-02  1.061579E+00
       156 -7.423281E-02 -3.711640E-02  1.150044E+00
       157 -7.423281E-02 -1.855820E-02  1.238509E+00
       158 -7.423281E-02 -3.711640E-02  1.238509E+00
       159 -7.423281E-02 -5.567461E-02  1.238509E+00
       160 -7.423281E-02 -3.711640E-02  1.326974E+00
       161 -3.711640E-02 -7.423281E-02  8.846490E-02
       162 -5.567461E-02 -7.423281E-02  1.769298E-01
       163 -3.711640E-02 -7.423281E-02  1.769298E-01
       164 -1.855820E-02 -7.423281E-02  1.769298E-01
       165 -3.711640E-02 -7.423281E-02  2.653947E-01
       166 -5.567461E-02 -7.423281E-02  3.538596E-01
       167 -3.711640E-02 -7.423281E-02  3.538596E-01
       168 -1.855820E-02 -7.423281E-02  3.538596E-01
       169 -3.711640E-02 -7.423281E-02  4.423245E-01
       170 -5.567461E-02 -7.423281E-02  5.307894E-01
       171 -3.711640E-02 -7.423281E-02  5.307894E-01
       172 -1.855820E-02 -7.423281E-02  5.307894E-01
       173 -3.711640E-02 -7.423281E-02  6.192543E-01
       174 -5.567461E-02 -7.423281E-02  7.077192E-01
       175 -3.711640E-02 -7.423281E-02  7.077192E-01
       176 -1.855820E-02 -7.423281E-02  7.077192E-01
       177 -3.711640E-02 -7.423281E-02  7.961841E-01
       178 -5.567461E-02 -7.423281E-02  8.846490E-01
       179 -3.711640E-02 -7.423281E-02  8.846490E-01
       180 -1.855820E-02 -7.423281E-02  8.846490E-01
       181 -3.711640E-02 -7.423281E-02  9.731139E-01
       182 -5.567461E-02 -7.423281E-02  1.061579E+00
       183 -3.711640E-02 -7.423281E-02  1.061579E+00
       184 -1.855820E-02 -7.423281E-02  1.061579E+00
       185 -3.711640E-02 -7.423281E-02  1.150044E+00
       186 -5.567461E-02 -7.423281E-02  1.238509E+00
       187 -3.711640E-02 -7.423281E-02  1.238509E+00
       188 -1.855820E-02 -7.423281E-02  1.238509E+00
       189 -3.711640E-02 -7.423281E-02  1.326974E+00
       190 -3.072530E-11 -3.711640E-02  8.846490E-02
       191 -3.771367E-11 -5.567461E-02  1.769298E-01
       192 -3.785560E-11 -3.711640E-02  1.769298E-01
       193 -3.221682E-11 -1.855820E-02  1.769298E-01
       194 -3.962321E-11 -3.711640E-02  2.653947E-01
       195 -4.559108E-11 -5.567461E-02  3.538596E-01
       196 -4.500611E-11 -3.711640E-02  3.538596E-01
       197 -4.301319E-11 -1.855820E-02  3.538596E-01
       198 -4.886942E-11 -3.711640E-02  4.423245E-01
       199 -5.454358E-11 -5.567461E-02  5.307894E-01
       200 -5.417660E-11 -3.711640E-02  5.307894E-01
       201 -5.288011E-11 -1.855820E-02  5.307894E-01
       202 -5.857294E-11 -3.711640E-02  6.192543E-01
       203 -6.388543E-11 -5.567461E-02  7.077192E-01
       204 -6.366350E-11 -3.711640E-02  7.077192E-01
       205 -6.301455E-11 -1.855820E-02  7.077192E-01
       206 -6.830029E-11 -3.711640E-02  7.961841E-01
       207 -7.330534E-11 -5.567461E-02  8.846490E-01
       208 -7.330519E-11 -3.711640E-02  8.846490E-01
       209 -7.303614E-11 -1.855820E-02  8.846490E-01
       210 -7.799238E-11 -3.711640E-02  9.731139E-01
       211 -8.267257E-11 -5.567461E-02  1.061579E+00
       212 -8.292584E-11 -3.711640E-02  1.061579E+00
       213 -8.302403E-11 -1.855820E-02  1.061579E+00
       214 -8.763012E-11 -3.711640E-02  1.150044E+00
       215 -9.204578E-11 -5.567461E-02  1.238509E+00
       216 -9.255176E-11 -3.711640E-02  1.238509E+00
       217 -9.294892E-11 -1.855820E-02  1.238509E+00
       218 -9.726749E-11 -3.711640E-02  1.326974E+00
       219 -3.711640E-02 -3.711640E-02  8.846490E-02
       220 -3.711640E-02 -1.855820E-02  1.769298E-01
       221 -1.855820E-02 -3.711640E-02  1.769298E-01
       222 -3.711640E-02 -3.711640E-02  1.769298E-01
       223 -5.567461E-02 -3.711640E-02  1.769298E-01
       224 -3.711640E-02 -5.567461E-02  1.769298E-01
       225 -3.711640E-02 -3.711640E-02  2.653947E-01
       226 -3.711640E-02 -1.855820E-02  3.538596E-01
       227 -1.855820E-02 -3.711640E-02  3.538596E-01
       228 -3.711640E-02 -3.711640E-02  3.538596E-01
       229 -5.567461E-02 -3.711640E-02  3.538596E-01
       230 -3.711640E-02 -5.567461E-02  3.538596E-01
       231 -3.711640E-02 -3.711640E-02  4.423245E-01
       232 -3.711640E-02 -1.855820E-02  5.307894E-01
       233 -1.855820E-02 -3.711640E-02  5.307894E-01
       234 -3.711640E-02 -3.711640E-02  5.307894E-01
       235 -5.567461E-02 -3.711640E-02  5.307894E-01
       236 -3.711640E-02 -5.567461E-02  5.307894E-01
       237 -3.711640E-02 -3.711640E-02  6.192543E-01
       238 -3.711640E-02 -1.855820E-02  7.077192E-01
       239 -1.855820E-02 -3.711640E-02  7.077192E-01
       240 -3.711640E-02 -3.711640E-02  7.077192E-01
       241 -5.567461E-02 -3.711640E-02  7.077192E-01
       242 -3.711640E-02 -5.567461E-02  7.077192E-01
       243 -3.711640E-02 -3.711640E-02  7.961841E-01
       244 -3.711640E-02 -1.855820E-02  8.846490E-01
       245 -1.855820E-02 -3.711640E-02  8.846490E-01
       246 -3.711640E-02 -3.711640E-02  8.846490E-01
       247 -5.567461E-02 -3.711640E-02  8.846490E-01
       248 -3.711640E-02 -5.567461E-02  8.846490E-01
       249 -3.711640E-02 -3.711640E-02  9.731139E-01
       250 -3.711640E-02 -1.855820E-02  1.061579E+00
       251 -1.855820E-02 -3.711640E-02  1.061579E+00
       252 -3.711640E-02 -3.711640E-02  1.061579E+00
       253 -5.567461E-02 -3.711640E-02  1.061579E+00
       254 -3.711640E-02 -5.567461E-02  1.061579E+00
       255 -3.711640E-02 -3.711640E-02  1.150044E+00
       256 -3.711640E-02 -1.855820E-02  1.238509E+00
       257 -1.855820E-02 -3.711640E-02  1.238509E+00
       258 -3.711640E-02 -3.711640E-02  1.238509E+00
       259 -5.567461E-02 -3.711640E-02  1.238509E+00
       260 -3.711640E-02 -5.567461E-02  1.238509E+00
       261 -3.711640E-02 -3.711640E-02  1.326974E+00

 forces (fx,fy,fz) for set NALL and time  0.1000000E+01

         1 -1.154490E-05 -1.154492E-05  3.578113E-02
         2  1.154492E-05 -1.154493E-05  3.578113E-02
         3  1.154492E-05  1.154492E-05  3.578113E-02
         4 -1.154492E-05  1.154492E-05  3.578113E-02
         5 -1.154492E-05 -1.154492E-05 -3.578113E-02
         6  1.154492E-05 -1.154492E-05 -3.578113E-02
         7  1.154492E-05  1.154492E-05 -3.578113E-02
         8 -1.154492E-05  1.154492E-05 -3.578113E-02
         9  5.534151E-14  4.617967E-05 -1.431245E-01
        10 -1.252089E-13 -2.308984E-05  7.156226E-02
        11  6.150655E-14  4.617967E-05 -1.431245E-01
        12 -4.617967E-05 -6.771824E-14 -1.431245E-01
        13  2.308984E-05  7.007774E-14  7.156226E-02
        14 -4.617967E-05 -4.334252E-14 -1.431245E-01
        15  1.030126E-13 -4.617967E-05 -1.431245E-01
        16 -1.540108E-13  2.308984E-05  7.156226E-02
        17  1.197570E-13 -4.617967E-05 -1.431245E-01
        18  4.617967E-05 -1.068146E-14 -1.431245E-01
        19 -2.308984E-05  2.961700E-14  7.156226E-02
        20  4.617967E-05  5.937012E-15 -1.431245E-01
        21 -1.424148E-12  4.617968E-05  1.431245E-01
        22  9.685392E-13 -2.308984E-05 -7.156226E-02
        23 -1.207068E-12  4.617967E-05  1.431245E-01
        24 -4.617968E-05  5.789953E-14  1.431245E-01
        25  2.308984E-05 -9.608435E-14 -7.156226E-02
        26 -4.617968E-05  4.914761E-13  1.431245E-01
        27 -1.149370E-12 -4.617967E-05  1.431245E-01
        28  5.687805E-13  2.308984E-05 -7.156226E-02
        29 -9.379679E-13 -4.617967E-05  1.431245E-01
        30  4.617967E-05  3.423945E-13  1.431245E-01
        31 -2.308984E-05 -5.105374E-13 -7.156226E-02
        32  4.617967E-05  7.832943E-13  1.431245E-01
        33 -4.617967E-05  4.617967E-05 -4.011331E-14
        34  2.308984E-05 -2.308984E-05  4.424933E-14
        35 -4.617967E-05  4.617967E-05 -7.029273E-14
        36  2.308984E-05 -2.308984E-05  4.099152E-14
        37 -4.617967E-05  4.617967E-05 -3.491391E-14
        38  2.308984E-05 -2.308984E-05 -8.350525E-15
        39 -4.617967E-05  4.617967E-05  2.524890E-14
        40  2.308984E-05 -2.308984E-05 -2.870837E-14
        41 -4.617967E-05  4.617967E-05  4.557119E-15
        42  2.308984E-05 -2.308984E-05  1.975026E-14
        43 -4.617967E-05  4.617967E-05 -6.895656E-14
        44  2.308984E-05 -2.308984E-05  5.143542E-14
        45 -4.617967E-05  4.617967E-05 -5.666041E-14
        46  2.308984E-05 -2.308984E-05  1.298180E-14
        47 -4.617967E-05  4.617967E-05  8.412541E-15
        48  4.617967E-05  4.617967E-05 -5.385991E-15
        49 -2.308984E-05 -2.308984E-05 -2.531829E-15
        50  4.617967E-05  4.617967E-05  1.466600E-14
        51 -2.308984E-05 -2.308984E-05 -1.418895E-14
        52  4.617967E-05  4.617967E-05  2.023045E-14
        53 -2.308984E-05 -2.308984E-05 -3.473133E-15
        54  4.617967E-05  4.617967E-05 -5.708541E-15
        55 -2.308984E-05 -2.308984E-05  1.361650E-14
        56  4.617967E-05  4.617967E-05 -1.153016E-14
        57 -2.308984E-05 -2.308984E-05  8.223673E-15
        58  4.617967E-05  4.617967E-05  7.288658E-15
        59 -2.308984E-05 -2.308984E-05 -5.960076E-15
        60  4.617967E-05  4.617967E-05  1.476163E-14
        61 -2.308984E-05 -2.308984E-05 -1.223847E-15
        62  4.617967E-05  4.617967E-05 -4.516027E-15
        63 -4.617967E-05 -4.617967E-05 -1.202510E-14
        64  2.308984E-05  2.308984E-05  1.983483E-14
        65 -4.617967E-05 -4.617967E-05 -3.137941E-14
        66  2.308984E-05  2.308984E-05  2.001004E-14
        67 -4.617967E-05 -4.617967E-05 -1.947748E-14
        68  2.308984E-05  2.308984E-05  1.602884E-15
        69 -4.617967E-05 -4.617967E-05  3.703635E-15
        70  2.308984E-05  2.308984E-05 -4.450433E-15
        71 -4.617967E-05 -4.617967E-05 -1.592476E-15
        72  2.308984E-05  2.308984E-05  8.657138E-15
        73 -4.617967E-05 -4.617967E-05 -2.401551E-14
        74  2.308984E-05  2.308984E-05  1.968564E-14
        75 -4.617967E-05 -4.617967E-05 -1.849215E-14
        76  2.308984E-05  2.308984E-05  4.021089E-15
        77 -4.617967E-05 -4.617967E-05  1.422473E-15
        78  4.617967E-05 -4.617967E-05  3.661351E-14
        79 -2.308984E-05  2.308984E-05 -4.713938E-14
        80  4.617967E-05 -4.617967E-05  7.864889E-14
        81 -2.308984E-05  2.308984E-05 -5.002032E-14
        82  4.617967E-05 -4.617967E-05  4.507419E-14
        83 -2.308984E-05  2.308984E-05  5.147792E-16
        84  4.617967E-05 -4.617967E-05 -1.918344E-14
        85 -2.308984E-05  2.308984E-05  2.414215E-14
        86  4.617967E-05 -4.617967E-05 -6.691696E-16
        87 -2.308984E-05  2.308984E-05 -1.911362E-14
        88  4.617967E-05 -4.617967E-05  6.155710E-14
        89 -2.308984E-05  2.308984E-05 -5.000644E-14
        90  4.617967E-05 -4.617967E-05  5.956086E-14
        91 -2.308984E-05  2.308984E-05 -1.519618E-14
        92  4.617967E-05 -4.617967E-05 -5.719383E-15
        93  1.865982E-13 -9.535634E-14 -2.862490E-01
        94  2.149744E-13 -8.966619E-14 -2.862490E-01
        95 -2.937033E-13  1.055483E-13  1.431245E-01
        96  1.984958E-13 -8.057407E-14 -2.862490E-01
        97  1.955406E-13 -7.289160E-14 -2.862490E-01
        98 -2.189176E-12  9.293851E-13  2.862490E-01
        99 -2.560583E-12  7.300755E-13  2.862490E-01
       100  1.373836E-12 -5.133211E-13 -1.431245E-01
       101 -2.554067E-12  7.378990E-13  2.862490E-01
       102 -2.180365E-12  9.229215E-13  2.862490E-01
       103  1.190280E-13  9.235935E-05 -8.152604E-14
       104  3.585551E-14  9.235935E-05  5.390436E-15
       105 -1.434823E-13 -4.617967E-05  7.293298E-14
       106  4.350362E-14  9.235935E-05 -6.548429E-14
       107 -4.744805E-14  9.235935E-05 -7.563210E-14
       108 -7.303855E-14  9.235935E-05 -2.918586E-14
       109  9.937969E-14 -4.617967E-05  4.519345E-14
       110 -7.781693E-14  9.235935E-05 -6.490381E-14
       111 -9.911067E-14  9.235935E-05 -3.078874E-14
       112 -1.153597E-13  9.235935E-05 -1.255961E-14
       113  1.501444E-13 -4.617967E-05  9.413043E-16
       114 -1.260010E-13  9.235935E-05 -6.302250E-15
       115 -1.042949E-13  9.235935E-05  1.334013E-14
       116  3.225145E-15  9.235935E-05 -2.641225E-14
       117 -1.699528E-14 -4.617967E-05 -1.553120E-14
       118  6.550334E-15  9.235935E-05  5.179733E-14
       119  1.001027E-13  9.235935E-05  1.998076E-15
       120  7.879206E-14  9.235935E-05 -7.937010E-15
       121 -1.108730E-13 -4.617967E-05  1.190519E-14
       122  9.289212E-14  9.235935E-05 -3.337174E-14
       123  1.926300E-14  9.235935E-05 -4.497910E-14
       124 -3.543909E-14  9.235935E-05 -2.657596E-14
       125  2.584788E-14 -4.617967E-05  3.631492E-14
       126 -2.769981E-14  9.235935E-05 -6.195044E-14
       127 -3.734870E-14  9.235935E-05 -4.227933E-14
       128 -7.519285E-14  9.235935E-05 -1.229767E-14
       129  1.517217E-13 -4.617967E-05  1.009371E-14
       130 -7.502484E-14  9.235935E-05 -1.610669E-14
       131 -4.531130E-14  9.235935E-05  4.267203E-15
       132 -9.235935E-05 -1.251084E-13 -2.801318E-14
       133 -9.235935E-05 -1.146777E-13 -1.037599E-13
       134  4.617967E-05  9.046254E-14  5.057586E-14
       135 -9.235935E-05 -1.085567E-13 -8.863136E-14
       136 -9.235935E-05 -8.493763E-14 -9.812767E-14
       137 -9.235935E-05  5.203598E-16 -1.182526E-13
       138  4.617967E-05 -2.160233E-15  6.242619E-14
       139 -9.235935E-05 -1.449443E-14 -7.064661E-14
       140 -9.235935E-05  4.796617E-14 -5.909986E-14
       141 -9.235935E-05  2.398290E-14  6.071532E-17
       142  4.617967E-05 -5.497366E-14 -4.374105E-15
       143 -9.235935E-05  3.238223E-15 -2.575370E-14
       144 -9.235935E-05 -2.856799E-14  2.995737E-14
       145 -9.235935E-05 -1.824121E-14  2.736526E-14
       146  4.617967E-05  1.819262E-14 -3.231269E-14
       147 -9.235935E-05 -2.601752E-14  2.346300E-14
       148 -9.235935E-05 -2.455742E-15  1.919038E-15
       149 -9.235935E-05 -4.479097E-14 -3.481243E-14
       150  4.617967E-05  6.063841E-14  2.891437E-14
       151 -9.235935E-05 -2.663309E-14 -5.186390E-14
       152 -9.235935E-05 -5.602436E-14 -9.171136E-14
       153 -9.235935E-05  6.055728E-15 -1.110475E-13
       154  4.617967E-05 -2.210193E-14  6.925667E-14
       155 -9.235935E-05  1.191038E-14 -7.002558E-14
       156 -9.235935E-05  5.828134E-14 -7.263027E-14
       157 -9.235935E-05  8.877663E-14 -2.792558E-14
       158  4.617967E-05 -6.756728E-14  2.005080E-14
       159 -9.235935E-05  6.794198E-14 -2.801752E-14
       160 -9.235935E-05  5.608006E-14  1.926410E-15
       161  2.148267E-13 -9.235935E-05  1.627518E-14
       162  1.654139E-13 -9.235935E-05  2.635045E-15
       163 -1.795778E-13  4.617967E-05 -2.283026E-14
       164  1.698540E-13 -9.235935E-05  5.901096E-14
       165  8.742108E-14 -9.235935E-05  4.654437E-14
       166 -2.005041E-14 -9.235935E-05  1.025308E-14
       167  4.726314E-14  4.617967E-05 -3.148740E-14
       168 -2.234025E-14 -9.235935E-05  8.145828E-14
       169 -9.803995E-14 -9.235935E-05  2.910519E-14
       170 -6.679611E-14 -9.235935E-05  2.764802E-14
       171  1.287613E-13  4.617967E-05  7.489669E-16
       172 -6.254138E-14 -9.235935E-05 -1.105106E-14
       173  7.547213E-15 -9.235935E-05 -1.416966E-14
       174  3.286669E-14 -9.235935E-05  4.822531E-16
       175 -3.503530E-14  4.617967E-05  1.690835E-14
       176  3.641313E-14 -9.235935E-05 -2.780848E-14
       177  3.680769E-14 -9.235935E-05 -2.180981E-15
       178  7.136218E-14 -9.235935E-05  2.682490E-14
       179 -1.179645E-13  4.617967E-05 -1.077393E-14
       180  7.867519E-14 -9.235935E-05  1.886599E-14
       181  7.631006E-14 -9.235935E-05  4.223445E-14
       182 -1.548182E-14 -9.235935E-05  6.058522E-15
       183  2.690682E-14  4.617967E-05 -3.107714E-14
       184  8.002810E-15 -9.235935E-05  7.769393E-14
       185 -1.054996E-13 -9.235935E-05  3.464199E-14
       186 -1.079479E-13 -9.235935E-05  1.985911E-14
       187  1.280874E-13  4.617967E-05 -5.868136E-15
       188 -1.181455E-13 -9.235935E-05  1.526036E-14
       189 -8.975865E-14 -9.235935E-05 -6.635751E-15
       190  9.235935E-05  9.337917E-15  5.756886E-14
       191  9.235935E-05  1.397770E-14  1.004045E-13
       192 -4.617967E-05  4.356812E-14 -7.586076E-14
       193  9.235935E-05  3.847084E-14  8.747278E-14
       194  9.235935E-05  4.218312E-14  1.171166E-13
       195  9.235935E-05  4.376417E-14  9.967721E-14
       196 -4.617967E-05 -3.896770E-14 -7.018539E-14
       197  9.235935E-05  3.545686E-14  9.209799E-14
       198  9.235935E-05  3.215109E-14  6.046942E-14
       199  9.235935E-05  7.753422E-14  1.745370E-14
       200 -4.617967E-05 -7.316393E-14  2.824780E-15
       201  9.235935E-05  6.834817E-14  5.475004E-15
       202  9.235935E-05  8.065461E-14 -2.595656E-14
       203  9.235935E-05 -5.631281E-15 -4.944200E-14
       204 -4.617967E-05  7.733754E-15  3.225870E-14
       205  9.235935E-05  8.881193E-15 -7.337880E-16
       206  9.235935E-05 -6.350271E-14 -3.881335E-15
       207  9.235935E-05 -4.731664E-14  5.426692E-14
       208 -4.617967E-05  5.600994E-14 -2.755912E-14
       209  9.235935E-05 -4.175976E-14  3.252715E-14
       210  9.235935E-05  4.081705E-15  8.843262E-14
       211  9.235935E-05  1.374282E-15  9.366531E-14
       212 -4.617967E-05 -2.199561E-15 -6.421795E-14
       213  9.235935E-05  1.359552E-14  8.534991E-14
       214  9.235935E-05  1.041141E-15  6.892837E-14
       215  9.235935E-05  2.732919E-14  2.988040E-14
       216 -4.617967E-05 -7.453002E-14 -1.821807E-14
       217  9.235935E-05  1.552225E-14  2.847961E-14
       218  9.235935E-05  1.060704E-14 -5.386533E-15
       219  3.811909E-13 -1.219376E-13 -1.376785E-14
       220  2.399005E-13 -8.167424E-14 -1.252037E-14
       221  2.345480E-13 -9.017190E-14  6.115746E-14
       222 -3.410113E-13  1.429260E-13  7.682873E-15
       223  2.656846E-13 -9.760476E-14 -7.123924E-14
       224  2.319519E-13 -1.128498E-13  1.464258E-14
       225  5.397720E-14 -6.226301E-14  6.396793E-16
       226 -1.144139E-13  4.109759E-14 -3.174826E-14
       227 -1.224328E-13  3.099655E-14  6.065851E-14
       228  1.567055E-13 -3.881394E-14  1.104368E-15
       229 -1.245494E-13  3.848140E-14 -5.727797E-14
       230 -1.071692E-13  3.772188E-14  3.078700E-14
       231 -2.434229E-13  9.889506E-14 -3.004541E-15
       232 -2.113146E-13  1.147235E-13  6.460978E-15
       233 -2.393689E-13  9.467097E-14 -2.489632E-14
       234  3.011527E-13 -1.446698E-13  2.760812E-15
       235 -2.355197E-13  9.750716E-14  2.558999E-14
       236 -2.085723E-13  1.218743E-13 -6.679336E-15
       237 -1.199526E-13  6.200761E-14  1.144701E-15
       238  3.987313E-14 -1.848515E-14  2.744940E-14
       239  4.136060E-14 -1.523851E-14 -6.145930E-14
       240 -5.593259E-14  2.228376E-14 -1.730387E-16
       241  6.041871E-14 -1.989914E-14  5.609662E-14
       242  3.526312E-14 -2.135493E-14 -3.245689E-14
       243  1.748097E-13 -8.955164E-14 -1.267432E-16
       244  1.905146E-13 -1.058938E-13 -4.065324E-15
       245  2.150402E-13 -8.633069E-14  9.382035E-15
       246 -2.672309E-13  1.186045E-13 -4.698932E-16
       247  2.274537E-13 -9.676462E-14 -1.066573E-14
       248  1.797469E-13 -8.720902E-14  9.196203E-15
       249  1.230810E-13 -5.832123E-14  1.070975E-15
       250 -3.235295E-14  3.383492E-14 -2.931813E-14
       251 -3.304662E-14  1.300832E-14  6.325582E-14
       252  4.563963E-14 -3.246411E-14  3.520188E-15
       253 -4.565049E-14  3.980899E-15 -6.215037E-14
       254 -4.150934E-14  3.041828E-14  2.667029E-14
       255 -1.868789E-13  7.875999E-14 -3.164786E-15
       256 -2.038642E-13  1.351855E-13 -2.554380E-15
       257 -2.454724E-13  1.037549E-13  1.391899E-15
       258  3.122355E-13 -1.577009E-13 -2.674076E-15
       259 -2.376679E-13  9.794283E-14 -9.920450E-16
       260 -2.098557E-13  1.228769E-13  4.531965E-15
       261 -1.922848E-13  9.779613E-14  1.394501E-15

 stresses (elem, integ.pnt.,sxx,syy,szz,sxy,sxz,syz) for set EALL and time  0.1000000E+01

         1   1 -2.543022E-04 -2.543020E-04  2.003972E+00 -5.817156E-11 -1.336086E-10  1.444195E-12
         1   2 -2.543021E-04 -2.543021E-04  2.003972E+00 -4.055685E-11 -4.128303E-11 -2.064927E-11
         1   3 -2.543020E-04 -2.543020E-04  2.003972E+00  1.662188E-11 -4.330944E-12 -3.345044E-12
         1   4 -2.543019E-04 -2.543020E-04  2.003972E+00 -8.315658E-12 -9.766065E-12 -1.077657E-11
         1   5 -2.543019E-04 -2.543020E-04  2.003972E+00  1.299985E-11  2.467948E-11  2.255365E-11
         1   6 -2.543019E-04 -2.543019E-04  2.003972E+00  2.672718E-12 -2.092334E-11  6.897247E-12
         1   7 -2.543020E-04 -2.543020E-04  2.003972E+00  1.424258E-11 -8.231432E-12  1.193643E-11
         1   8 -2.543020E-04 -2.543020E-04  2.003972E+00  3.619549E-12 -1.696264E-11  1.587838E-12
         2   1 -2.543020E-04 -2.543020E-04  2.003972E+00  1.494428E-11 -1.539673E-11  9.958225E-14
         2   2 -2.543020E-04 -2.543019E-04  2.003972E+00 -2.804638E-11  5.592015E-12  7.630854E-11
         2   3 -2.543020E-04 -2.543021E-04  2.003972E+00 -3.646048E-11 -1.963052E-11 -3.890897E-12
         2   4 -2.543020E-04 -2.543019E-04  2.003972E+00 -2.699971E-11 -1.433697E-11  2.042487E-11
         2   5 -2.543020E-04 -2.543020E-04  2.003972E+00  8.022718E-12 -3.947149E-11 -3.644765E-12
         2   6 -2.543020E-04 -2.543020E-04  2.003972E+00  4.859301E-12 -2.291895E-11 -1.984954E-11
         2   7 -2.543020E-04 -2.543020E-04  2.003972E+00 -2.181389E-13 -2.685381E-11 -1.783103E-13
         2   8 -2.543020E-04 -2.543020E-04  2.003972E+00 -2.971167E-12 -2.446209E-11  2.926760E-12
         3   1 -2.543020E-04 -2.543020E-04  2.003972E+00 -1.056798E-11  1.503243E-11  8.203151E-12
         3   2 -2.543020E-04 -2.543020E-04  2.003972E+00  9.609310E-12 -2.866946E-12  3.925940E-12
         3   3 -2.543020E-04 -2.543020E-04  2.003972E+00  7.756385E-12 -8.225568E-12  4.687508E-12
         3   4 -2.543020E-04 -2.543020E-04  2.003972E+00 -9.405355E-12 -5.263963E-12  3.075366E-12
         3   5 -2.543020E-04 -2.543020E-04  2.003972E+00 -2.444614E-12 -3.170103E-11  1.263364E-11