
 displacements (vx,vy,vz) for set NALL and time  0.3000000E+01

         1  0.000000E+00  0.000000E+00  0.000000E+00
         2  0.000000E+00  0.000000E+00  0.000000E+00
         3  0.000000E+00  0.000000E+00  0.000000E+00
         4  0.000000E+00  0.000000E+00  0.000000E+00
         5  1.426537E-04  1.426537E-04  7.569055E-03
         6 -1.426537E-04  1.426537E-04  7.569055E-03
         7 -1.426537E-04 -1.426537E-04  7.569055E-03
         8  1.426537E-04 -1.426537E-04  7.569055E-03
         9  0.000000E+00  0.000000E+00  0.000000E+00
        10  0.000000E+00  0.000000E+00  0.000000E+00
        11  0.000000E+00  0.000000E+00  0.000000E+00
        12  0.000000E+00  0.000000E+00  0.000000E+00
        13  0.000000E+00  0.000000E+00  0.000000E+00
        14  0.000000E+00  0.000000E+00  0.000000E+00
        15  0.000000E+00  0.000000E+00  0.000000E+00
        16  0.000000E+00  0.000000E+00  0.000000E+00
        17  0.000000E+00  0.000000E+00  0.000000E+00
        18  0.000000E+00  0.000000E+00  0.000000E+00
        19  0.000000E+00  0.000000E+00  0.000000E+00
        20  0.000000E+00  0.000000E+00  0.000000E+00
        21  7.132701E-05  1.426596E-04  7.569063E-03
        22  1.483359E-15  1.426658E-04  7.569067E-03
        23 -7.132701E-05  1.426596E-04  7.569063E-03
        24 -1.426596E-04  7.132701E-05  7.569063E-03
        25 -1.426658E-04  2.252990E-15  7.569067E-03
        26 -1.426596E-04 -7.132701E-05  7.569063E-03
        27 -7.132701E-05 -1.426596E-04  7.569063E-03
        28  1.506628E-15 -1.426658E-04  7.569067E-03
        29  7.132701E-05 -1.426596E-04  7.569063E-03
        30  1.426596E-04 -7.132701E-05  7.569063E-03
        31  1.426658E-04  2.272185E-15  7.569067E-03
        32  1.426596E-04  7.132701E-05  7.569063E-03
        33 -1.582816E-04  1.582816E-04  4.590076E-04
        34 -1.187755E-04  1.187755E-04  9.126062E-04
        35 -1.456117E-04  1.456117E-04  1.393112E-03
        36 -1.380009E-04  1.380009E-04  1.864368E-03
        37 -1.432618E-04  1.432618E-04  2.341817E-03
        38 -1.416052E-04  1.416052E-04  2.816518E-03
        39 -1.428795E-04  1.428795E-04  3.291954E-03
        40 -1.423698E-04  1.423698E-04  3.767024E-03
        41 -1.427127E-04  1.427127E-04  4.242400E-03
        42 -1.425809E-04  1.425809E-04  4.717609E-03
        43 -1.426791E-04  1.426791E-04  5.192863E-03
        44 -1.426366E-04  1.426366E-04  5.668090E-03
        45 -1.426651E-04  1.426651E-04  6.143342E-03
        46 -1.426523E-04  1.426523E-04  6.618580E-03
        47 -1.426632E-04  1.426632E-04  7.093821E-03
        48  1.426632E-04  1.426632E-04  7.093821E-03
        49  1.426523E-04  1.426523E-04  6.618580E-03
        50  1.426651E-04  1.426651E-04  6.143342E-03
        51  1.426366E-04  1.426366E-04  5.668090E-03
        52  1.426791E-04  1.426791E-04  5.192863E-03
        53  1.425809E-04  1.425809E-04  4.717609E-03
        54  1.427127E-04  1.427127E-04  4.242400E-03
        55  1.423698E-04  1.423698E-04  3.767024E-03
        56  1.428795E-04  1.428795E-04  3.291954E-03
        57  1.416052E-04  1.416052E-04  2.816518E-03
        58  1.432618E-04  1.432618E-04  2.341817E-03
        59  1.380009E-04  1.380009E-04  1.864368E-03
        60  1.456117E-04  1.456117E-04  1.393112E-03
        61  1.187755E-04  1.187755E-04  9.126062E-04
        62  1.582816E-04  1.582816E-04  4.590076E-04
        63 -1.582816E-04 -1.582816E-04  4.590076E-04
        64 -1.187755E-04 -1.187755E-04  9.126062E-04
        65 -1.456117E-04 -1.456117E-04  1.393112E-03
        66 -1.380009E-04 -1.380009E-04  1.864368E-03
        67 -1.432618E-04 -1.432618E-04  2.341817E-03
        68 -1.416052E-04 -1.416052E-04  2.816518E-03
        69 -1.428795E-04 -1.428795E-04  3.291954E-03
        70 -1.423698E-04 -1.423698E-04  3.767024E-03
        71 -1.427127E-04 -1.427127E-04  4.242400E-03
        72 -1.425809E-04 -1.425809E-04  4.717609E-03
        73 -1.426791E-04 -1.426791E-04  5.192863E-03
        74 -1.426366E-04 -1.426366E-04  5.668090E-03
        75 -1.426651E-04 -1.426651E-04  6.143342E-03
        76 -1.426523E-04 -1.426523E-04  6.618580E-03
        77 -1.426632E-04 -1.426632E-04  7.093821E-03
        78  1.582816E-04 -1.582816E-04  4.590076E-04
        79  1.187755E-04 -1.187755E-04  9.126062E-04
        80  1.456117E-04 -1.456117E-04  1.393112E-03
        81  1.380009E-04 -1.380009E-04  1.864368E-03
        82  1.432618E-04 -1.432618E-04  2.341817E-03
        83  1.416052E-04 -1.416052E-04  2.816518E-03
        84  1.428795E-04 -1.428795E-04  3.291954E-03
        85  1.423698E-04 -1.423698E-04  3.767024E-03
        86  1.427127E-04 -1.427127E-04  4.242400E-03
        87  1.425809E-04 -1.425809E-04  4.717609E-03
        88  1.426791E-04 -1.426791E-04  5.192863E-03
        89  1.426366E-04 -1.426366E-04  5.668090E-03
        90  1.426651E-04 -1.426651E-04  6.143342E-03
        91  1.426523E-04 -1.426523E-04  6.618580E-03
        92  1.426632E-04 -1.426632E-04  7.093821E-03
        93  0.000000E+00  0.000000E+00  0.000000E+00
        94  0.000000E+00  0.000000E+00  0.000000E+00
        95  0.000000E+00  0.000000E+00  0.000000E+00
        96  0.000000E+00  0.000000E+00  0.000000E+00
        97  0.000000E+00  0.000000E+00  0.000000E+00
        98  1.488034E-15  7.133234E-05  7.569063E-03
        99  7.133234E-05  2.266960E-15  7.569063E-03
       100  1.492998E-15  2.261595E-15  7.569060E-03
       101 -7.133234E-05  2.257231E-15  7.569063E-03
       102  1.500125E-15 -7.133234E-05  7.569063E-03
       103  5.792133E-18  1.584154E-04  4.359686E-04
       104  5.983676E-05  1.213781E-04  9.163772E-04
       105  3.257095E-17  1.245080E-04  9.229562E-04
       106 -5.983676E-05  1.213781E-04  9.163772E-04
       107  7.223932E-17  1.430616E-04  1.391106E-03
       108  6.873129E-05  1.399617E-04  1.865915E-03
       109  1.288821E-16  1.418147E-04  1.867150E-03
       110 -6.873129E-05  1.399617E-04  1.865915E-03
       111  1.968475E-16  1.422267E-04  2.341150E-03
       112  7.085226E-05  1.423217E-04  2.816694E-03
       113  2.779882E-16  1.430795E-04  2.817042E-03
       114 -7.085226E-05  1.423217E-04  2.816694E-03
       115  3.683464E-16  1.425207E-04  3.291860E-03
       116  7.116575E-05  1.426129E-04  3.767142E-03
       117  4.703527E-16  1.428469E-04  3.767224E-03
       118 -7.116575E-05  1.426129E-04  3.767142E-03
       119  5.772363E-16  1.426084E-04  4.242342E-03
       120  7.129526E-05  1.426510E-04  4.717626E-03
       121  6.934308E-16  1.427249E-04  4.717657E-03
       122 -7.129526E-05  1.426510E-04  4.717626E-03
       123  8.166934E-16  1.426478E-04  5.192854E-03
       124  7.131670E-05  1.426581E-04  5.668100E-03
       125  9.450189E-16  1.426790E-04  5.668108E-03
       126 -7.131670E-05  1.426581E-04  5.668100E-03
       127  1.076303E-15  1.426557E-04  6.143337E-03
       128  7.132652E-05  1.426596E-04  6.618582E-03
       129  1.210973E-15  1.426672E-04  6.618585E-03
       130 -7.132652E-05  1.426596E-04  6.618582E-03
       131  1.343613E-15  1.426584E-04  7.093821E-03
       132 -1.584154E-04  8.986383E-18  4.359686E-04
       133 -1.213781E-04  5.983676E-05  9.163772E-04
       134 -1.245080E-04  4.921155E-17  9.229562E-04
       135 -1.213781E-04 -5.983676E-05  9.163772E-04
       136 -1.430616E-04  1.096796E-16  1.391106E-03
       137 -1.399617E-04  6.873129E-05  1.865915E-03
       138 -1.418147E-04  1.953793E-16  1.867150E-03
       139 -1.399617E-04 -6.873129E-05  1.865915E-03
       140 -1.422267E-04  2.989359E-16  2.341150E-03
       141 -1.423217E-04  7.085226E-05  2.816694E-03
       142 -1.430795E-04  4.222688E-16  2.817042E-03
       143 -1.423217E-04 -7.085226E-05  2.816694E-03
       144 -1.425207E-04  5.598002E-16  3.291860E-03
       145 -1.426129E-04  7.116575E-05  3.767142E-03
       146 -1.428469E-04  7.140883E-16  3.767224E-03
       147 -1.426129E-04 -7.116575E-05  3.767142E-03
       148 -1.426084E-04  8.775554E-16  4.242342E-03
       149 -1.426510E-04  7.129526E-05  4.717626E-03
       150 -1.427249E-04  1.054869E-15  4.717657E-03
       151 -1.426510E-04 -7.129526E-05  4.717626E-03
       152 -1.426478E-04  1.239595E-15  5.192854E-03
       153 -1.426581E-04  7.131670E-05  5.668100E-03
       154 -1.426790E-04  1.433570E-15  5.668108E-03
       155 -1.426581E-04 -7.131670E-05  5.668100E-03
       156 -1.426557E-04  1.633011E-15  6.143337E-03
       157 -1.426596E-04  7.132652E-05  6.618582E-03
       158 -1.426672E-04  1.838076E-15  6.618585E-03
       159 -1.426596E-04 -7.132652E-05  6.618582E-03
       160 -1.426584E-04  2.042604E-15  7.093821E-03
       161  6.869900E-18 -1.584154E-04  4.359686E-04
       162 -5.983676E-05 -1.213781E-04  9.163772E-04
       163  3.452957E-17 -1.245080E-04  9.229562E-04
       164  5.983676E-05 -1.213781E-04  9.163772E-04
       165  7.617359E-17 -1.430616E-04  1.391106E-03
       166 -6.873129E-05 -1.399617E-04  1.865915E-03
       167  1.341417E-16 -1.418147E-04  1.867150E-03
       168  6.873129E-05 -1.399617E-04  1.865915E-03
       169  2.037437E-16 -1.422267E-04  2.341150E-03
       170 -7.085226E-05 -1.423217E-04  2.816694E-03
       171  2.866822E-16 -1.430795E-04  2.817042E-03
       172  7.085226E-05 -1.423217E-04  2.816694E-03
       173  3.780231E-16 -1.425207E-04  3.291860E-03
       174 -7.116575E-05 -1.426129E-04  3.767142E-03
       175  4.810312E-16 -1.428469E-04  3.767224E-03
       176  7.116575E-05 -1.426129E-04  3.767142E-03
       177  5.910632E-16 -1.426084E-04  4.242342E-03
       178 -7.129526E-05 -1.426510E-04  4.717626E-03
       179  7.085091E-16 -1.427249E-04  4.717657E-03
       180  7.129526E-05 -1.426510E-04  4.717626E-03
       181  8.339451E-16 -1.426478E-04  5.192854E-03
       182 -7.131670E-05 -1.426581E-04  5.668100E-03
       183  9.618276E-16 -1.426790E-04  5.668108E-03
       184  7.131670E-05 -1.426581E-04  5.668100E-03
       185  1.095953E-15 -1.426557E-04  6.143337E-03
       186 -7.132652E-05 -1.426596E-04  6.618582E-03
       187  1.232143E-15 -1.426672E-04  6.618585E-03
       188  7.132652E-05 -1.426596E-04  6.618582E-03
       189  1.368348E-15 -1.426584E-04  7.093821E-03
       190  1.584154E-04  9.962285E-18  4.359686E-04
       191  1.213781E-04 -5.983676E-05  9.163772E-04
       192  1.245080E-04  5.120923E-17  9.229562E-04
       193  1.213781E-04  5.983676E-05  9.163772E-04
       194  1.430616E-04  1.132674E-16  1.391106E-03
       195  1.399617E-04 -6.873129E-05  1.865915E-03
       196  1.418147E-04  2.008168E-16  1.867150E-03
       197  1.399617E-04  6.873129E-05  1.865915E-03
       198  1.422267E-04  3.057559E-16  2.341150E-03
       199  1.423217E-04 -7.085226E-05  2.816694E-03
       200  1.430795E-04  4.301915E-16  2.817042E-03
       201  1.423217E-04  7.085226E-05  2.816694E-03
       202  1.425207E-04  5.696450E-16  3.291860E-03
       203  1.426129E-04 -7.116575E-05  3.767142E-03
       204  1.428469E-04  7.240483E-16  3.767224E-03
       205  1.426129E-04  7.116575E-05  3.767142E-03
       206  1.426084E-04  8.913731E-16  4.242342E-03
       207  1.426510E-04 -7.129526E-05  4.717626E-03
       208  1.427249E-04  1.070511E-15  4.717657E-03
       209  1.426510E-04  7.129526E-05  4.717626E-03
       210  1.426478E-04  1.256478E-15  5.192854E-03
       211  1.426581E-04 -7.131670E-05  5.668100E-03
       212  1.426790E-04  1.452254E-15  5.668108E-03
       213  1.426581E-04  7.131670E-05  5.668100E-03
       214  1.426557E-04  1.651630E-15  6.143337E-03
       215  1.426596E-04 -7.132652E-05  6.618582E-03
       216  1.426672E-04  1.859402E-15  6.618585E-03
       217  1.426596E-04  7.132652E-05  6.618582E-03
       218  1.426584E-04  2.067908E-15  7.093821E-03
       219  8.649862E-18  1.311072E-17  4.117338E-04
       220  3.481806E-17  6.232912E-05  9.275650E-04
       221  6.232912E-05  5.337742E-17  9.275650E-04
       222  3.556156E-17  5.315157E-17  9.347316E-04
       223 -6.232912E-05  5.238119E-17  9.275650E-04
       224  3.583173E-17 -6.232912E-05  9.275650E-04
       225  7.648818E-17  1.151031E-16  1.389205E-03
       226  1.315101E-16  7.071275E-05  1.868041E-03
       227  7.071275E-05  2.012106E-16  1.868041E-03
       228  1.330832E-16  2.003063E-16  1.868754E-03
       229 -7.071275E-05  1.984843E-16  1.868041E-03
       230  1.340311E-16 -7.071275E-05  1.868041E-03
       231  2.024024E-16  3.053458E-16  2.341227E-03
       232  2.809544E-16  7.155834E-05  2.816833E-03
       233  7.155834E-05  4.297686E-16  2.816833E-03
       234  2.831770E-16  4.280388E-16  2.816742E-03
       235 -7.155834E-05  4.257971E-16  2.816833E-03
       236  2.854011E-16 -7.155834E-05  2.816833E-03
       237  3.749583E-16  5.672186E-16  3.292016E-03
       238  4.735763E-16  7.141395E-05  3.767151E-03
       239  7.141395E-05  7.227940E-16  3.767151E-03
       240  4.760444E-16  7.206407E-16  3.767047E-03
       241 -7.141395E-05  7.179185E-16  3.767151E-03
       242  4.787995E-16 -7.141395E-05  3.767151E-03
       243  5.852022E-16  8.864066E-16  4.242392E-03
       244  6.977432E-16  7.136458E-05  4.717614E-03
       245  7.136458E-05  1.067760E-15  4.717614E-03
       246  7.017655E-16  1.064050E-15  4.717579E-03
       247 -7.136458E-05  1.059659E-15  4.717614E-03
       248  7.054162E-16 -7.136458E-05  4.717614E-03
       249  8.260804E-16  1.249442E-15  5.192872E-03
       250  9.499864E-16  7.133889E-05  5.668098E-03
       251  7.133889E-05  1.447742E-15  5.668098E-03
       252  9.543598E-16  1.442805E-15  5.668086E-03
       253 -7.133889E-05  1.438727E-15  5.668098E-03
       254  9.583221E-16 -7.133889E-05  5.668098E-03
       255  1.086773E-15  1.643996E-15  6.143341E-03
       256  1.216158E-15  7.133388E-05  6.618581E-03
       257  7.133388E-05  1.853643E-15  6.618581E-03
       258  1.220838E-15  1.847362E-15  6.618577E-03
       259 -7.133388E-05  1.842682E-15  6.618581E-03
       260  1.226189E-15 -7.133388E-05  6.618581E-03
       261  1.356831E-15  2.055892E-15  7.093823E-03

 stresses (elem, integ.pnt.,sxx,syy,szz,sxy,sxz,syz) for set EALL and time  0.3000000E+01

         1   1  3.507715E+01  3.507715E+01  2.090989E+02 -1.944833E-01  1.934422E+01  1.934422E+01
         1   2  3.104772E+01  3.125407E+01  2.000023E+02 -1.011075E-01  3.344513E+00  1.922407E+01
         1   3  3.125407E+01  3.104772E+01  2.000023E+02 -1.011075E-01  1.922407E+01  3.344513E+00
         1   4  2.727421E+01  2.727421E+01  1.907269E+02 -4.930083E-02  3.230311E+00  3.230311E+00
         1   5 -1.514095E+01 -1.514095E+01  1.880027E+02  5.028184E-01 -8.949133E+00 -8.949133E+00
         1   6 -1.100202E+01 -1.119562E+01  1.997811E+02  4.172054E-01 -3.125506E+00 -8.510480E+00
         1   7 -1.119562E+01 -1.100202E+01  1.997811E+02  4.172054E-01 -8.510480E+00 -3.125506E+00
         1   8 -6.186627E+00 -6.186627E+00  2.124942E+02  1.535002E-01 -3.053678E+00 -3.053678E+00
         2   1  3.104772E+01  3.125407E+01  2.000023E+02  1.011075E-01 -3.344513E+00  1.922407E+01
         2   2  3.507715E+01  3.507715E+01  2.090989E+02  1.944833E-01 -1.934422E+01  1.934422E+01
         2   3  2.727421E+01  2.727421E+01  1.907269E+02  4.930083E-02 -3.230311E+00  3.230311E+00
         2   4  3.125407E+01  3.104772E+01  2.000023E+02  1.011075E-01 -1.922407E+01  3.344513E+00
         2   5 -1.100202E+01 -1.119562E+01  1.997811E+02 -4.172054E-01  3.125506E+00 -8.510480E+00
         2   6 -1.514095E+01 -1.514095E+01  1.880027E+02 -5.028184E-01  8.949133E+00 -8.949133E+00
         2   7 -6.186627E+00 -6.186627E+00  2.124942E+02 -1.535002E-01  3.053678E+00 -3.053678E+00
         2   8 -1.119562E+01 -1.100202E+01  1.997811E+02 -4.172054E-01  8.510480E+00 -3.125506E+00
         3   1  3.125407E+01  3.104772E+01  2.000023E+02  1.011075E-01  1.922407E+01 -3.344513E+00
         3   2  2.727421E+01  2.727421E+01  1.907269E+02  4.930083E-02  3.230311E+00 -3.230311E+00
         3   3  3.507715E+01  3.507715E+01  2.090989E+02  1.944833E-01  1.934422E+01 -1.934422E+01
         3   4  3.104772E+01  3.125407E+01  2.000023E+02  1.011075E-01  3.344513E+00 -1.922407E+01
         3   5 -1.119562E+01 -1.100202E+01  1.997811E+02 -4.172054E-01 -8.510480E+00  3.125506E+00
         3   6 -6.186627E+00 -6.186627E+00  2.124942E+02 -1.535002E-01 -3.053678E+00  3.053678E+00
         3   7 -1.514095E+01 -1.514095E+01  1.880027E+02 -5.028184E-01 -8.949133E+00  8.949133E+00
         3   8 -1.100202E+01 -1.119562E+01  1.997811E+02 -4.172054E-01 -3.125506E+00  8.510480E+00
         4   1  2.727421E+01  2.727421E+01  1.907269E+02 -4.930083E-02 -3.230311E+00 -3.230311E+00
         4   2  3.125407E+01  3.104772E+01  2.000023E+02 -1.011075E-01 -1.922407E+01 -3.344513E+00
         4   3  3.104772E+01  3.125407E+01  2.000023E+02 -1.011075E-01 -3.344513E+00 -1.922407E+01
         4   4  3.507715E+01  3.507715E+01  2.090989E+02 -1.944833E-01 -1.934422E+01 -1.934422E+01
         4   5 -6.186627E+00 -6.186627E+00  2.124942E+02  1.535002E-01  3.053678E+00  3.053678E+00
         4   6 -1.119562E+01 -1.100202E+01  1.997811E+02  4.172054E-01  8.510480E+00  3.125506E+00
         4   7 -1.100202E+01 -1.119562E+01  1.997811E+02  4.172054E-01  3.125506E+00  8.510480E+00
         4   8 -1.514095E+01 -1.514095E+01  1.880027E+02  5.028184E-01  8.949133E+00  8.949133E+00
         5   1  7.480878E+00  7.480878E+00  2.049776E+02 -6.201579E-02  3.628667E+00  3.628667E+00
         5   2  4.744713E+00  4.897011E+00  1.999657E+02  5.411350E-02  1.835768E+00  3.047020E+00
         5   3  4.897011E+00  4.744713E+00  1.999657E+02  5.411350E-02  3.047020E+00  1.835768E+00
         5   4  2.654641E+00  2.654641E+00  1.950646E+02  1.279904E-03  1.725952E+00  1.725952E+00
         5   5 -2.614124E+00 -2.614124E+00  1.979409E+02 -1.807642E-01 -1.437530E+00 -1.437530E+00
         5   6 -1.402162E+00 -1.468657E+00  2.000559E+02 -1.084454E-01 -5.006964E-01 -9.361559E-01
         5   7 -1.468657E+00 -1.402162E+00  2.000559E+02 -1.084454E-01 -9.361559E-01 -5.006964E-01
         5   8 -3.167066E-01 -3.167066E-01  2.019548E+02 -4.746494E-02 -3.928679E-01 -3.928679E-01
         6   1  4.744713E+00  4.897011E+00  1.999657E+02 -5.411350E-02 -1.835768E+00  3.047020E+00
         6   2  7.480878E+00  7.480878E+00  2.049776E+02  6.201579E-02 -3.628667E+00  3.628667E+00
         6   3  2.654641E+00  2.654641E+00  1.950646E+02 -1.279904E-03 -1.725952E+00  1.725952E+00
         6   4  4.897011E+00  4.744713E+00  1.999657E+02 -5.411350E-02 -3.047020E+00  1.835768E+00
         6   5 -1.402162E+00 -1.468657E+00  2.000559E+02  1.084454E-01  5.006964E-01 -9.361559E-01
         6   6 -2.614124E+00 -2.614124E+00  1.979409E+02  1.807642E-01  1.437530E+00 -1.437530E+00
         6   7 -3.167066E-01 -3.167066E-01  2.019548E+02  4.746494E-02  3.928679E-01 -3.928679E-01
         6   8 -1.468657E+00 -1.402162E+00  2.000559E+02  1.084454E-01  9.361559E-01 -5.006964E-01
         7   1  4.897011E+00  4.744713E+00  1.999657E+02 -5.411350E-02  3.047020E+00 -1.835768E+00
         7   2  2.654641E+00  2.654641E+00  1.950646E+02 -1.279904E-03  1.725952E+00 -1.725952E+00
         7   3  7.480878E+00  7.480878E+00  2.049776E+02  6.201579E-02  3.628667E+00 -3.628667E+00
         7   4  4.744713E+00  4.897011E+00  1.999657E+02 -5.411350E-02  1.835768E+00 -3.047020E+00
         7   5 -1.468657E+00 -1.402162E+00  2.000559E+02  1.084454E-01 -9.361559E-01  5.006964E-01
         7   6 -3.167066E-01 -3.167066E-01  2.019548E+02  4.746494E-02 -3.928679E-01  3.928679E-01
         7   7 -2.614124E+00 -2.614124E+00  1.979409E+02  1.807642E-01 -1.437530E+00  1.437530E+00
         7   8 -1.402162E+00 -1.468657E+00  2.000559E+02  1.084454E-01 -5.006964E-01  9.361559E-01
         8   1  2.654641E+00  2.654641E+00  1.950646E+02  1.279904E-03 -1.725952E+00 -1.725952E+00
         8   2  4.897011E+00  4.744713E+00  1.999657E+02  5.411350E-02 -3.047020E+00 -1.835768E+00
         8   3  4.744713E+00  4.897011E+00  1.999657E+02  5.411350E-02 -1.835768E+00 -3.047020E+00
         8   4  7.480878E+00  7.480878E+00  2.049776E+02 -6.201579E-02 -3.628667E+00 -3.628667E+00
         8   5 -3.167066E-01 -3.167066E-01  2.019548E+02 -4.746494E-02  3.928679E-01  3.928679E-01
         8   6 -1.468657E+00 -1.402162E+00  2.000559E+02 -1.084454E-01  9.361559E-01  5.006964E-01
         8   7 -1.402162E+00 -1.468657E+00  2.000559E+02 -1.084454E-01  5.006964E-01  9.361559E-01
         8   8 -2.614124E+00 -2.614124E+00  1.979409E+02 -1.807642E-01  1.437530E+00  1.437530E+00
         9   1  9.450710E-01  9.450710E-01  2.008884E+02  2.542138E-01  7.617575E-01  7.617575E-01
         9   2  8.747143E-01  4.514597E-01  1.999122E+02  1.428615E-01  2.586346E-01  3.545487E-01
         9   3  4.514597E-01  8.747143E-01  1.999122E+02  1.428615E-01  3.545487E-01  2.586346E-01
         9   4  4.458540E-01  4.458540E-01  1.992833E+02  6.433246E-02  1.639305E-01  1.639305E-01
         9   5 -4.249958E-01 -4.249958E-01  1.996068E+02 -1.279432E-01 -2.749464E-01 -2.749464E-01
         9   6 -1.422542E-01 -8.500066E-02  2.000843E+02 -7.892419E-02 -1.035160E-01 -2.493620E-02
         9   7 -8.500066E-02 -1.422542E-01  2.000843E+02 -7.892419E-02 -2.493620E-02 -1.035160E-01
         9   8  6.799969E-02  6.799969E-02  2.002252E+02 -3.411777E-02 -2.285837E-02 -2.285837E-02
        10   1  8.747143E-01  4.514597E-01  1.999122E+02 -1.428615E-01 -2.586346E-01  3.545487E-01
        10   2  9.450710E-01  9.450710E-01  2.008884E+02 -2.542138E-01 -7.617575E-01  7.617575E-01
        10   3  4.458540E-01  4.458540E-01  1.992833E+02 -6.433246E-02 -1.639305E-01  1.639305E-01
        10   4  4.514597E-01  8.747143E-01  1.999122E+02 -1.428615E-01 -3.545487E-01  2.586346E-01
        10   5 -1.422542E-01 -8.500066E-02  2.000843E+02  7.892419E-02  1.035160E-01 -2.493620E-02
        10   6 -4.249958E-01 -4.249958E-01  1.996068E+02  1.279432E-01  2.749464E-01 -2.749464E-01
        10   7  6.799969E-02  6.799969E-02  2.002252E+02  3.411777E-02  2.285837E-02 -2.285837E-02
        10   8 -8.500066E-02 -1.422542E-01  2.000843E+02  7.892419E-02  2.493620E-02 -1.035160E-01
        11   1  4.514597E-01  8.747143E-01  1.999122E+02 -1.428615E-01  3.545487E-01 -2.586346E-01
        11   2  4.458540E-01  4.458540E-01  1.992833E+02 -6.433246E-02  1.639305E-01 -1.639305E-01
        11   3  9.450710E-01  9.450710E-01  2.008884E+02 -2.542138E-01  7.617575E-01 -7.617575E-01
        11   4  8.747143E-01  4.514597E-01  1.999122E+02 -1.428615E-01  2.586346E-01 -3.545487E-01
        11   5 -8.500066E-02 -1.422542E-01  2.000843E+02  7.892419E-02 -2.493620E-02  1.035160E-01
        11   6  6.799969E-02  6.799969E-02  2.002252E+02  3.411777E-02 -2.285837E-02  2.285837E-02
        11   7 -4.249958E-01 -4.249958E-01  1.996068E+02  1.279432E-01 -2.749464E-01  2.749464E-01
        11   8 -1.422542E-01 -8.500066E-02  2.000843E+02  7.892419E-02 -1.035160E-01  2.493620E-02
        12   1  4.458540E-01  4.458540E-01  1.992833E+02  6.433246E-02 -1.639305E-01 -1.639305E-01
        12   2  4.514597E-01  8.747143E-01  1.999122E+02  1.428615E-01 -3.545487E-01 -2.586346E-01
        12   3  8.747143E-01  4.514597E-01  1.999122E+02  1.428615E-01 -2.586346E-01 -3.545487E-01
        12   4  9.450710E-01  9.450710E-01  2.008884E+02  2.542138E-01 -7.617575E-01 -7.617575E-01
        12   5  6.799969E-02  6.799969E-02  2.002252E+02 -3.411777E-02  2.285837E-02  2.285837E-02
        12   6 -8.500066E-02 -1.422542E-01  2.000843E+02 -7.892419E-02  2.493620E-02  1.035160E-01
        12   7 -1.422542E-01 -8.500066E-02  2.000843E+02 -7.892419E-02  1.035160E-01  2.493620E-02
        12   8 -4.249958E-01 -4.249958E-01  1.996068E+02 -1.279432E-01  2.749464E-01  2.749464E-01
        13   1  2.545142E-01  2.545142E-01  2.001742E+02  8.131459E-02  1.220689E-01  1.220689E-01
        13   2  5.381006E-02  1.974807E-02  1.999356E+02  5.878355E-02  7.414909E-02 -3.776192E-02
        13   3  1.974807E-02  5.381006E-02  1.999356E+02  5.878355E-02 -3.776192E-02  7.414909E-02
        13   4 -3.515984E-02 -3.515984E-02  1.999541E+02  2.307389E-02  1.545260E-02  1.545260E-02
        13   5 -9.164901E-02 -9.164901E-02  1.999392E+02 -5.159081E-02 -6.009404E-02 -6.009404E-02
        13   6 -2.451549E-02  6.999816E-03  2.000362E+02 -3.218448E-02 -1.840182E-02  2.778773E-02
        13   7  6.999816E-03 -2.451549E-02  2.000362E+02 -3.218448E-02  2.778773E-02 -1.840182E-02
        13   8  1.057941E-02  1.057941E-02  1.999883E+02 -1.342179E-02  1.164371E-02  1.164371E-02
        14   1  5.381006E-02  1.974807E-02  1.999356E+02 -5.878355E-02 -7.414909E-02 -3.776192E-02
        14   2  2.545142E-01  2.545142E-01  2.001742E+02 -8.131459E-02 -1.220689E-01  1.220689E-01
        14   3 -3.515984E-02 -3.515984E-02  1.999541E+02 -2.307389E-02 -1.545260E-02  1.545260E-02
        14   4  1.974807E-02  5.381006E-02  1.999356E+02 -5.878355E-02  3.776192E-02  7.414909E-02
        14   5 -2.451549E-02  6.999816E-03  2.000362E+02  3.218448E-02  1.840182E-02  2.778773E-02
        14   6 -9.164901E-02 -9.164901E-02  1.999392E+02  5.159081E-02  6.009404E-02 -6.009404E-02
        14   7  1.057941E-02  1.057941E-02  1.999883E+02  1.342179E-02 -1.164371E-02  1.164371E-02
        14   8  6.999816E-03 -2.451549E-02  2.000362E+02  3.218448E-02 -2.778773E-02 -1.840182E-02
        15   1  1.974807E-02  5.381006E-02  1.999356E+02 -5.878355E-02 -3.776192E-02 -7.414909E-02
        15   2 -3.515984E-02 -3.515984E-02  1.999541E+02 -2.307389E-02  1.545260E-02 -1.545260E-02
        15   3  2.545142E-01  2.545142E-01  2.001742E+02 -8.131459E-02  1.220689E-01 -1.220689E-01
        15   4  5.381006E-02  1.974807E-02  1.999356E+02 -5.878355E-02  7.414909E-02  3.776192E-02
        15   5  6.999816E-03 -2.451549E-02  2.000362E+02  3.218448E-02  2.778773E-02  1.840182E-02
        15   6  1.057941E-02  1.057941E-02  1.999883E+02  1.342179E-02  1.164371E-02 -1.164371E-02
        15   7 -9.164901E-02 -9.164901E-02  1.999392E+02  5.159081E-02 -6.009404E-02  6.009404E-02
        15   8 -2.451549E-02  6.999816E-03  2.000362E+02  3.218448E-02 -1.840182E-02 -2.778773E-02
        16   1 -3.515984E-02 -3.515984E-02  1.999541E+02  2.307389E-02 -1.545260E-02 -1.545260E-02
        16   2  1.974807E-02  5.381006E-02  1.999356E+02  5.878355E-02  3.776192E-02 -7.414909E-02
        16   3  5.381006E-02  1.974807E-02  1.999356E+02  5.878355E-02 -7.414909E-02  3.776192E-02
        16   4  2.545142E-01  2.545142E-01  2.001742E+02  8.131459E-02 -1.220689E-01 -1.220689E-01
        16   5  1.057941E-02  1.057941E-02  1.999883E+02 -1.342179E-02 -1.164371E-02 -1.164371E-02
        16   6  6.999816E-03 -2.451549E-02  2.000362E+02 -3.218448E-02 -2.778773E-02  1.840182E-02
        16   7 -2.451549E-02  6.999816E-03  2.000362E+02 -3.218448E-02  1.840182E-02 -2.778773E-02
        16   8 -9.164901E-02 -9.164901E-02  1.999392E+02 -5.159081E-02  6.009404E-02  6.009404E-02
        17   1  3.191575E-02  3.191575E-02  2.000340E+02  3.653107E-02  4.104438E-02  4.104438E-02
        17   2  2.516356E-02 -1.482885E-02  1.999767E+02  2.182259E-02  9.312725E-03 -1.510249E-02
        17   3 -1.482885E-02  2.516356E-02  1.999767E+02  2.182259E-02 -1.510249E-02  9.312725E-03
        17   4  6.880764E-03  6.880764E-03  2.000124E+02  9.886320E-03 -1.136382E-02 -1.136382E-02
        17   5 -2.119525E-02 -2.119525E-02  1.999803E+02 -1.613110E-02 -1.706616E-02 -1.706616E-02
        17   6 -1.414896E-03  9.741263E-03  2.000136E+02 -9.935889E-03 -6.371108E-03  1.169608E-02
        17   7  9.741263E-03 -1.414896E-03  2.000136E+02 -9.935889E-03  1.169608E-02 -6.371108E-03
        17   8  6.296953E-03  6.296953E-03  1.999924E+02 -4.171370E-03  4.760646E-03  4.760646E-03
        18   1  2.516356E-02 -1.482885E-02  1.999767E+02 -2.182259E-02 -9.312725E-03 -1.510249E-02
        18   2  3.191575E-02  3.191575E-02  2.000340E+02 -3.653107E-02 -4.104438E-02  4.104438E-02
        18   3  6.880764E-03  6.880764E-03  2.000124E+02 -9.886320E-03  1.136382E-02 -1.136382E-02
        18   4 -1.482885E-02  2.516356E-02  1.999767E+02 -2.182259E-02  1.510249E-02  9.312725E-03
        18   5 -1.414896E-03  9.741263E-03  2.000136E+02  9.935889E-03  6.371108E-03  1.169608E-02
        18   6 -2.119525E-02 -2.119525E-02  1.999803E+02  1.613110E-02  1.706616E-02 -1.706616E-02
        18   7  6.296953E-03  6.296953E-03  1.999924E+02  4.171370E-03 -4.760646E-03  4.760646E-03
        18   8  9.741263E-03 -1.414896E-03  2.000136E+02  9.935889E-03 -1.169608E-02 -6.371108E-03
        19   1 -1.482885E-02  2.516356E-02  1.999767E+02 -2.182259E-02 -1.510249E-02 -9.312725E-03
        19   2  6.880764E-03  6.880764E-03  2.000124E+02 -9.886320E-03 -1.136382E-02  1.136382E-02
        19   3  3.191575E-02  3.191575E-02  2.000340E+02 -3.653107E-02  4.104438E-02 -4.104438E-02
        19   4  2.516356E-02 -1.482885E-02  1.999767E+02 -2.182259E-02  9.312725E-03  1.510249E-02
        19   5  9.741263E-03 -1.414896E-03  2.000136E+02  9.935889E-03  1.169608E-02  6.371108E-03
        19   6  6.296953E-03  6.296953E-03  1.999924E+02  4.171370E-03  4.760646E-03 -4.760646E-03
        19   7 -2.119525E-02 -2.119525E-02  1.999803E+02  1.613110E-02 -1.706616E-02  1.706616E-02
        19   8 -1.414896E-03  9.741263E-03  2.000136E+02  9.935889E-03 -6.371108E-03 -1.169608E-02
        20   1  6.880764E-03  6.880764E-03  2.000124E+02  9.886320E-03  1.136382E-02  1.136382E-02
        20   2 -1.482885E-02  2.516356E-02  1.999767E+02  2.182259E-02  1.510249E-02 -9.312725E-03
        20   3  2.516356E-02 -1.482885E-02  1.999767E+02  2.182259E-02 -9.312725E-03  1.510249E-02
        20   4  3.191575E-02  3.191575E-02  2.000340E+02  3.653107E-02 -4.104438E-02 -4.104438E-02
        20   5  6.296953E-03  6.296953E-03  1.999924E+02 -4.171370E-03 -4.760646E-03 -4.760646E-03
        20   6  9.741263E-03 -1.414896E-03  2.000136E+02 -9.935889E-03 -1.169608E-02  6.371108E-03
        20   7 -1.414896E-03  9.741263E-03  2.000136E+02 -9.935889E-03  6.371108E-03 -1.169608E-02
        20   8 -2.119525E-02 -2.119525E-02  1.999803E+02 -1.613110E-02  1.706616E-02  1.706616E-02
        21   1  1.660859E-02  1.660859E-02  2.000102E+02  8.827566E-03  8.025637E-03  8.025637E-03