    1C
    1UModel: beam     Date: 10-Mar-1998                                 
    1UUSER                                                              
    1UDATE              24.november.2019                                
    1UTIME              19:35:20                                        
    1UHOST                                                              
    1UPGM               CalculiX                                        
    1UVERSION           Version 2.16                             
    1UCOMPILETIME       So 24. Nov 18:30:58 CET 2019                    
    1UDIR                                                               
    1UDBN                                                               
    1UMAT    1EL                                                        
    2C                            81                                     1
 -1         1 0.00000E+00 0.00000E+00 0.00000E+00
 -1         2 1.00000E+00 0.00000E+00 0.00000E+00
 -1         3 1.00000E+00 1.50000E+00 0.00000E+00
 -1         4 0.00000E+00 1.50000E+00 0.00000E+00
 -1         5 0.00000E+00 0.00000E+00 8.00000E+00
 -1         6 1.00000E+00 0.00000E+00 8.00000E+00
 -1         7 1.00000E+00 1.50000E+00 8.00000E+00
 -1         8 0.00000E+00 1.50000E+00 8.00000E+00
 -1        10 5.00000E-01 0.00000E+00 0.00000E+00
 -1        13 1.00000E+00 7.50000E-01 0.00000E+00
 -1        16 5.00000E-01 1.50000E+00 0.00000E+00
 -1        19 0.00000E+00 7.50000E-01 0.00000E+00
 -1        22 5.00000E-01 0.00000E+00 8.00000E+00
 -1        25 1.00000E+00 7.50000E-01 8.00000E+00
 -1        28 5.00000E-01 1.50000E+00 8.00000E+00
 -1        31 0.00000E+00 7.50000E-01 8.00000E+00
 -1        34 1.00000E+00 0.00000E+00 1.00000E+00
 -1        36 1.00000E+00 0.00000E+00 2.00000E+00
 -1        38 1.00000E+00 0.00000E+00 3.00000E+00
 -1        40 1.00000E+00 0.00000E+00 4.00000E+00
 -1        42 1.00000E+00 0.00000E+00 5.00000E+00
 -1        44 1.00000E+00 0.00000E+00 6.00000E+00
 -1        46 1.00000E+00 0.00000E+00 7.00000E+00
 -1        49 0.00000E+00 0.00000E+00 7.00000E+00
 -1        51 0.00000E+00 0.00000E+00 6.00000E+00
 -1        53 0.00000E+00 0.00000E+00 5.00000E+00
 -1        55 0.00000E+00 0.00000E+00 4.00000E+00
 -1        57 0.00000E+00 0.00000E+00 3.00000E+00
 -1        59 0.00000E+00 0.00000E+00 2.00000E+00
 -1        61 0.00000E+00 0.00000E+00 1.00000E+00
 -1        64 1.00000E+00 1.50000E+00 1.00000E+00
 -1        66 1.00000E+00 1.50000E+00 2.00000E+00
 -1        68 1.00000E+00 1.50000E+00 3.00000E+00
 -1        70 1.00000E+00 1.50000E+00 4.00000E+00
 -1        72 1.00000E+00 1.50000E+00 5.00000E+00
 -1        74 1.00000E+00 1.50000E+00 6.00000E+00
 -1        76 1.00000E+00 1.50000E+00 7.00000E+00
 -1        79 0.00000E+00 1.50000E+00 1.00000E+00
 -1        81 0.00000E+00 1.50000E+00 2.00000E+00
 -1        83 0.00000E+00 1.50000E+00 3.00000E+00
 -1        85 0.00000E+00 1.50000E+00 4.00000E+00
 -1        87 0.00000E+00 1.50000E+00 5.00000E+00
 -1        89 0.00000E+00 1.50000E+00 6.00000E+00
 -1        91 0.00000E+00 1.50000E+00 7.00000E+00
 -1        95 5.00000E-01 7.50000E-01 0.00000E+00
 -1       100 5.00000E-01 7.50000E-01 8.00000E+00
 -1       105 5.00000E-01 0.00000E+00 1.00000E+00
 -1       109 5.00000E-01 0.00000E+00 2.00000E+00
 -1       113 5.00000E-01 0.00000E+00 3.00000E+00
 -1       117 5.00000E-01 0.00000E+00 4.00000E+00
 -1       121 5.00000E-01 0.00000E+00 5.00000E+00
 -1       125 5.00000E-01 0.00000E+00 6.00000E+00
 -1       129 5.00000E-01 0.00000E+00 7.00000E+00
 -1       134 1.00000E+00 7.50000E-01 1.00000E+00
 -1       138 1.00000E+00 7.50000E-01 2.00000E+00
 -1       142 1.00000E+00 7.50000E-01 3.00000E+00
 -1       146 1.00000E+00 7.50000E-01 4.00000E+00
 -1       150 1.00000E+00 7.50000E-01 5.00000E+00
 -1       154 1.00000E+00 7.50000E-01 6.00000E+00
 -1       158 1.00000E+00 7.50000E-01 7.00000E+00
 -1       163 5.00000E-01 1.50000E+00 1.00000E+00
 -1       167 5.00000E-01 1.50000E+00 2.00000E+00
 -1       171 5.00000E-01 1.50000E+00 3.00000E+00
 -1       175 5.00000E-01 1.50000E+00 4.00000E+00
 -1       179 5.00000E-01 1.50000E+00 5.00000E+00
 -1       183 5.00000E-01 1.50000E+00 6.00000E+00
 -1       187 5.00000E-01 1.50000E+00 7.00000E+00
 -1       192 0.00000E+00 7.50000E-01 1.00000E+00
 -1       196 0.00000E+00 7.50000E-01 2.00000E+00
 -1       200 0.00000E+00 7.50000E-01 3.00000E+00
 -1       204 0.00000E+00 7.50000E-01 4.00000E+00
 -1       208 0.00000E+00 7.50000E-01 5.00000E+00
 -1       212 0.00000E+00 7.50000E-01 6.00000E+00
 -1       216 0.00000E+00 7.50000E-01 7.00000E+00
 -1       222 5.00000E-01 7.50000E-01 1.00000E+00
 -1       228 5.00000E-01 7.50000E-01 2.00000E+00
 -1       234 5.00000E-01 7.50000E-01 3.00000E+00
 -1       240 5.00000E-01 7.50000E-01 4.00000E+00
 -1       246 5.00000E-01 7.50000E-01 5.00000E+00
 -1       252 5.00000E-01 7.50000E-01 6.00000E+00
 -1       258 5.00000E-01 7.50000E-01 7.00000E+00
 -3
    3C                            32                                     1
 -1         1    1    0    1
 -2         1        10        95        19        61       105       222       192
 -1         2    1    0    1
 -2        10         2        13        95       105        34       134       222
 -1         3    1    0    1
 -2        19        95        16         4       192       222       163        79
 -1         4    1    0    1
 -2        95        13         3        16       222       134        64       163
 -1         5    1    0    1
 -2        61       105       222       192        59       109       228       196
 -1         6    1    0    1
 -2       105        34       134       222       109        36       138       228
 -1         7    1    0    1
 -2       192       222       163        79       196       228       167        81
 -1         8    1    0    1
 -2       222       134        64       163       228       138        66       167
 -1         9    1    0    1
 -2        59       109       228       196        57       113       234       200
 -1        10    1    0    1
 -2       109        36       138       228       113        38       142       234
 -1        11    1    0    1
 -2       196       228       167        81       200       234       171        83
 -1        12    1    0    1
 -2       228       138        66       167       234       142        68       171
 -1        13    1    0    1
 -2        57       113       234       200        55       117       240       204
 -1        14    1    0    1
 -2       113        38       142       234       117        40       146       240
 -1        15    1    0    1
 -2       200       234       171        83       204       240       175        85
 -1        16    1    0    1
 -2       234       142        68       171       240       146        70       175
 -1        17    1    0    1
 -2        55       117       240       204        53       121       246       208
 -1        18    1    0    1
 -2       117        40       146       240       121        42       150       246
 -1        19    1    0    1
 -2       204       240       175        85       208       246       179        87
 -1        20    1    0    1
 -2       240       146        70       175       246       150        72       179
 -1        21    1    0    1
 -2        53       121       246       208        51       125       252       212
 -1        22    1    0    1
 -2       121        42       150       246       125        44       154       252
 -1        23    1    0    1
 -2       208       246       179        87       212       252       183        89
 -1        24    1    0    1
 -2       246       150        72       179       252       154        74       183
 -1        25    1    0    1
 -2        51       125       252       212        49       129       258       216
 -1        26    1    0    1
 -2       125        44       154       252       129        46       158       258
 -1        27    1    0    1
 -2       212       252       183        89       216       258       187        91
 -1        28    1    0    1
 -2       252       154        74       183       258       158        76       187
 -1        29    1    0    1
 -2        49       129       258       216         5        22       100        31
 -1        30    1    0    1
 -2       129        46       158       258        22         6        25       100
 -1        31    1    0    1
 -2       216       258       187        91        31       100        28         8
 -1        32    1    0    1
 -2       258       158        76       187       100        25         7        28
 -3
    1PSTEP                         1           1           1          
  100CL  101 1.000000000          81                     0    1           1
 -4  DISP        4    1
 -5  D1          1    2    1    0
 -5  D2          1    2    2    0
 -5  D3          1    2    3    0
 -5  ALL         1    2    0    0    1ALL
 -1         1 0.00000E+00 0.00000E+00 0.00000E+00
 -1         2 0.00000E+00 0.00000E+00 0.00000E+00
 -1         3 0.00000E+00 0.00000E+00 0.00000E+00
 -1         4 0.00000E+00 0.00000E+00 0.00000E+00
 -1         5 2.33670E-06 2.39296E-03 3.31623E-04
 -1         6-2.33670E-06 2.39296E-03 3.31623E-04
 -1         7 2.33670E-06 2.39296E-03-3.31623E-04
 -1         8-2.33670E-06 2.39296E-03-3.31623E-04
 -1        10 0.00000E+00 0.00000E+00 0.00000E+00
 -1        13 0.00000E+00 0.00000E+00 0.00000E+00
 -1        16 0.00000E+00 0.00000E+00 0.00000E+00
 -1        19 0.00000E+00 0.00000E+00 0.00000E+00
 -1        22 1.03173E-16 2.39281E-03 3.31130E-04
 -1        25 8.00738E-17 2.39121E-03-5.86041E-18
 -1        28 5.69327E-17 2.39281E-03-3.31130E-04
 -1        31 7.97484E-17 2.39121E-03 1.10034E-17
 -1        34-1.41615E-05 5.88438E-05 7.25896E-05
 -1        36-1.00523E-05 2.08368E-04 1.41292E-04
 -1        38-8.57961E-06 4.44088E-04 1.99383E-04
 -1        40-6.86988E-06 7.49644E-04 2.46812E-04
 -1        42-5.12592E-06 1.11155E-03 2.83706E-04
 -1        44-3.51124E-06 1.51559E-03 3.10110E-04
 -1        46-1.29471E-06 1.94792E-03 3.25781E-04
 -1        49 1.29471E-06 1.94792E-03 3.25781E-04
 -1        51 3.51124E-06 1.51559E-03 3.10110E-04
 -1        53 5.12592E-06 1.11155E-03 2.83706E-04
 -1        55 6.86988E-06 7.49644E-04 2.46812E-04
 -1        57 8.57961E-06 4.44088E-04 1.99383E-04
 -1        59 1.00523E-05 2.08368E-04 1.41292E-04
 -1        61 1.41615E-05 5.88438E-05 7.25896E-05
 -1        64 1.41615E-05 5.88438E-05-7.25896E-05
 -1        66 1.00523E-05 2.08368E-04-1.41292E-04
 -1        68 8.57961E-06 4.44088E-04-1.99383E-04
 -1        70 6.86988E-06 7.49644E-04-2.46812E-04
 -1        72 5.12592E-06 1.11155E-03-2.83706E-04
 -1        74 3.51124E-06 1.51559E-03-3.10110E-04
 -1        76 1.29471E-06 1.94792E-03-3.25781E-04
 -1        79-1.41615E-05 5.88438E-05-7.25896E-05
 -1        81-1.00523E-05 2.08368E-04-1.41292E-04
 -1        83-8.57961E-06 4.44088E-04-1.99383E-04
 -1        85-6.86988E-06 7.49644E-04-2.46812E-04
 -1        87-5.12592E-06 1.11155E-03-2.83706E-04
 -1        89-3.51124E-06 1.51559E-03-3.10110E-04
 -1        91-1.29471E-06 1.94792E-03-3.25781E-04
 -1        95 0.00000E+00 0.00000E+00 0.00000E+00
 -1       100 7.99405E-17 2.39922E-03 2.47005E-18
 -1       105 4.19070E-18 6.33773E-05 7.12189E-05
 -1       109 1.17099E-17 2.11817E-04 1.42147E-04
 -1       113 2.16802E-17 4.46915E-04 1.99632E-04
 -1       117 3.39419E-17 7.51936E-04 2.47160E-04
 -1       121 4.84207E-17 1.11328E-03 2.84071E-04
 -1       125 6.54201E-17 1.51665E-03 3.10376E-04
 -1       129 8.49578E-17 1.94870E-03 3.26370E-04
 -1       134 1.59442E-18 4.90193E-05-1.00569E-18
 -1       138 5.80867E-18 2.01965E-04-1.92675E-18
 -1       142 1.25476E-17 4.38250E-04-2.71275E-18
 -1       146 2.17044E-17 7.45095E-04-3.43645E-18
 -1       150 3.30013E-17 1.10814E-03-4.46404E-18
 -1       154 4.70093E-17 1.51317E-03-5.24483E-18
 -1       158 6.32530E-17 1.94726E-03-5.80158E-18
 -1       163-1.58151E-18 6.33773E-05-7.12189E-05
 -1       167-5.48877E-19 2.11817E-04-1.42147E-04
 -1       171 2.99900E-18 4.46915E-04-1.99632E-04
 -1       175 8.63296E-18 7.51936E-04-2.47160E-04
 -1       179 1.66764E-17 1.11328E-03-2.84071E-04
 -1       183 2.78143E-17 1.51665E-03-3.10376E-04
 -1       187 4.12370E-17 1.94870E-03-3.26370E-04
 -1       192 1.75320E-18 4.90193E-05 1.76691E-18
 -1       196 5.86374E-18 2.01965E-04 3.54060E-18
 -1       200 1.27622E-17 4.38250E-04 5.24144E-18
 -1       204 2.16549E-17 7.45095E-04 6.65220E-18
 -1       208 3.29157E-17 1.10814E-03 8.28737E-18
 -1       212 4.67664E-17 1.51317E-03 1.00018E-17
 -1       216 6.35066E-17 1.94726E-03 1.09293E-17
 -1       222 1.54227E-18 5.35203E-05 3.59482E-19
 -1       228 5.71462E-18 2.05290E-04 8.11458E-19
 -1       234 1.25933E-17 4.41142E-04 1.25539E-18
 -1       240 2.15417E-17 7.47387E-04 1.62945E-18
 -1       246 3.30058E-17 1.10978E-03 1.85161E-18
 -1       252 4.66303E-17 1.51470E-03 2.32426E-18
 -1       258 6.33716E-17 1.94609E-03 2.59982E-18
 -3
    1PSTEP                         2           1           1          
  100CL  101 1.000000000          81                     0    1           1
 -4  STRESS      6    1
 -5  SXX         1    4    1    1
 -5  SYY         1    4    2    2
 -5  SZZ         1    4    3    3
 -5  SXY         1    4    1    2
 -5  SYZ         1    4    2    3
 -5  SZX         1    4    3    1
 -1         1 8.79439E+00 8.79440E+00 2.05201E+01-2.14093E-06 4.75272E+00 1.14380E+00
 -1         2 8.79439E+00 8.79440E+00 2.05201E+01 2.14093E-06 4.75272E+00-1.14380E+00
 -1         3-8.79439E+00-8.79440E+00-2.05201E+01 2.14093E-06 4.75272E+00 1.14380E+00
 -1         4-8.79439E+00-8.79440E+00-2.05201E+01-2.14093E-06 4.75272E+00-1.14380E+00
 -1         5-8.95904E-01-5.17674E-01 8.02643E-01-2.74472E-01 2.31992E-01 4.61575E-03
 -1         6-8.95904E-01-5.17674E-01 8.02643E-01 2.74472E-01 2.31992E-01-4.61575E-03
 -1         7 8.95904E-01 5.17674E-01-8.02643E-01 2.74472E-01 2.31992E-01 4.61575E-03
 -1         8 8.95904E-01 5.17674E-01-8.02643E-01-2.74472E-01 2.31992E-01-4.61575E-03
 -1        10 8.62833E+00 8.62833E+00 2.01326E+01 1.71738E-16 5.11888E+00 3.38655E-13
 -1        13-1.21528E-13-1.22513E-13-2.84661E-13 2.15957E-06 3.95920E+00 1.28689E-13
 -1        16-8.62833E+00-8.62833E+00-2.01326E+01-2.28983E-16 5.11888E+00-1.27558E-13
 -1        19 2.13695E-13 2.14412E-13 4.99573E-13-2.15957E-06 3.95920E+00 1.41541E-13
 -1        22 2.89687E-01 2.42348E+00 1.81346E+00 9.45077E-14 2.10997E-01 9.76649E-14
 -1        25 2.01450E-13 3.32567E-13 1.51851E-13-1.04220E+00 1.43776E-01 1.38119E-14
 -1        28-2.89687E-01-2.42348E+00-1.81346E+00 1.04083E-16 2.10997E-01-4.77049E-14
 -1        31 2.81081E-13 4.39093E-13 2.28900E-13 1.04220E+00 1.43776E-01-6.87018E-14
 -1        34-1.03468E+00 1.42451E+00 1.49523E+01 7.92748E-01 5.97511E-01-1.84534E-01
 -1        36 9.62933E-01 2.83135E+00 1.44513E+01 5.25480E-01 3.41804E-01 8.73798E-02
 -1        38 5.98275E-01 2.11279E+00 1.18926E+01 4.67264E-01 3.87176E-01 8.82465E-02
 -1        40 4.89002E-01 1.72864E+00 9.51898E+00 3.69556E-01 3.75223E-01 8.32372E-02
 -1        42 3.86109E-01 1.30862E+00 7.15453E+00 2.71618E-01 3.79354E-01 7.66668E-02
 -1        44 1.73801E-01 7.88473E-01 4.70649E+00 2.06092E-01 3.80169E-01 1.11775E-01
 -1        46 4.65070E-01 7.41912E-01 2.62086E+00 1.42066E-02 3.48113E-01-4.77939E-02
 -1        49 4.65070E-01 7.41912E-01 2.62086E+00-1.42066E-02 3.48113E-01 4.77939E-02
 -1        51 1.73801E-01 7.88473E-01 4.70649E+00-2.06092E-01 3.80169E-01-1.11775E-01
 -1        53 3.86109E-01 1.30862E+00 7.15453E+00-2.71618E-01 3.79354E-01-7.66668E-02
 -1        55 4.89002E-01 1.72864E+00 9.51898E+00-3.69556E-01 3.75223E-01-8.32372E-02
 -1        57 5.98275E-01 2.11279E+00 1.18926E+01-4.67264E-01 3.87176E-01-8.82465E-02
 -1        59 9.62933E-01 2.83135E+00 1.44513E+01-5.25480E-01 3.41804E-01-8.73798E-02
 -1        61-1.03468E+00 1.42451E+00 1.49523E+01-7.92748E-01 5.97511E-01 1.84534E-01
 -1        64 1.03468E+00-1.42451E+00-1.49523E+01 7.92748E-01 5.97511E-01 1.84534E-01
 -1        66-9.62933E-01-2.83135E+00-1.44513E+01 5.25480E-01 3.41804E-01-8.73798E-02
 -1        68-5.98275E-01-2.11279E+00-1.18926E+01 4.67264E-01 3.87176E-01-8.82465E-02
 -1        70-4.89002E-01-1.72864E+00-9.51898E+00 3.69556E-01 3.75223E-01-8.32372E-02
 -1        72-3.86109E-01-1.30862E+00-7.15453E+00 2.71618E-01 3.79354E-01-7.66668E-02
 -1        74-1.73801E-01-7.88473E-01-4.70649E+00 2.06092E-01 3.80169E-01-1.11775E-01
 -1        76-4.65070E-01-7.41912E-01-2.62086E+00 1.42066E-02 3.48113E-01 4.77939E-02
 -1        79 1.03468E+00-1.42451E+00-1.49523E+01-7.92748E-01 5.97511E-01-1.84534E-01
 -1        81-9.62933E-01-2.83135E+00-1.44513E+01-5.25480E-01 3.41804E-01 8.73798E-02
 -1        83-5.98275E-01-2.11279E+00-1.18926E+01-4.67264E-01 3.87176E-01 8.82465E-02
 -1        85-4.89002E-01-1.72864E+00-9.51898E+00-3.69556E-01 3.75223E-01 8.32372E-02
 -1        87-3.86109E-01-1.30862E+00-7.15453E+00-2.71618E-01 3.79354E-01 7.66668E-02
 -1        89-1.73801E-01-7.88473E-01-4.70649E+00-2.06092E-01 3.80169E-01 1.11775E-01
 -1        91-4.65070E-01-7.41912E-01-2.62086E+00-1.42066E-02 3.48113E-01-4.77939E-02
 -1        95 4.33004E-14 4.26152E-14 1.02224E-13 1.94289E-16 4.32274E+00 1.24502E-13
 -1       100-4.10227E-14-2.53242E-13-1.11244E-13-2.23155E-14 9.38117E-01-2.43801E-14
 -1       105-9.88170E-01 1.46401E+00 1.50678E+01-2.31482E-14 8.84388E-01 1.58720E-13
 -1       109 1.04111E+00 2.88292E+00 1.46603E+01-7.04992E-15 1.80869E-01 1.58103E-13
 -1       113 5.78091E-01 2.10659E+00 1.18316E+01-5.47340E-14 3.13630E-01 1.61463E-13
 -1       117 4.96007E-01 1.73563E+00 9.53533E+00 7.84095E-15 2.93660E-01 1.64728E-13
 -1       121 3.64891E-01 1.26576E+00 7.12667E+00-3.42781E-14 2.90483E-01 1.47703E-13
 -1       125 2.61448E-01 9.74853E-01 4.81227E+00 2.30857E-14 3.12745E-01 1.65102E-13
 -1       129 1.05131E-01-3.67003E-02 2.19968E+00-3.47777E-14 2.35913E-01 1.14700E-13
 -1       134-4.74065E-14-1.37668E-14-2.17104E-13 7.98002E-01 3.38908E-01 1.45162E-14
 -1       138-3.63598E-14-5.17364E-14-2.00395E-13 5.45437E-01 5.02809E-01-7.16007E-16
 -1       142-7.01661E-14 1.11022E-15-1.71307E-13 4.56772E-01 4.62058E-01 1.01915E-15
 -1       146 8.27116E-15-2.12053E-14-1.79329E-13 3.69563E-01 4.73436E-01 8.98045E-15
 -1       150 1.37390E-14 1.74971E-13-1.22818E-13 2.87851E-01 4.65627E-01 1.61763E-15
 -1       154 9.06081E-14-9.85045E-14-1.30201E-13 1.32042E-01 4.91187E-01-7.93636E-16
 -1       158-7.91173E-14-1.57929E-14-8.19900E-14 3.28212E-01 3.74932E-01-2.21432E-14
 -1       163 9.88170E-01-1.46401E+00-1.50678E+01 3.84415E-14 8.84388E-01-1.53419E-13
 -1       167-1.04111E+00-2.88292E+00-1.46603E+01 1.59872E-14 1.80869E-01-1.52628E-13
 -1       171-5.78091E-01-2.10659E+00-1.18316E+01 1.81105E-14 3.13630E-01-1.73750E-13
 -1       175-4.96007E-01-1.73563E+00-9.53533E+00 2.10526E-14 2.93660E-01-1.62365E-13
 -1       179-3.64891E-01-1.26576E+00-7.12667E+00 8.66390E-14 2.90483E-01-1.52671E-13
 -1       183-2.61448E-01-9.74853E-01-4.81227E+00-8.27116E-15 3.12745E-01-1.43344E-13
 -1       187-1.05131E-01 3.67003E-02-2.19968E+00 6.70991E-14 2.35913E-01-1.10814E-13
 -1       192 2.13163E-14-8.43769E-15 3.75089E-13-7.98002E-01 3.38908E-01 9.30779E-15
 -1       196 7.76601E-14 6.22835E-14 4.05731E-13-5.45437E-01 5.02809E-01 4.38381E-15
 -1       200 1.88738E-14-2.29816E-14 3.22298E-13-4.56772E-01 4.62058E-01-5.08835E-15
 -1       204 4.98213E-14-4.77396E-15 3.29958E-13-3.69563E-01 4.73436E-01 1.33351E-15
 -1       208 1.78801E-13 5.38458E-14 4.15862E-13-2.87851E-01 4.65627E-01-2.41581E-14
 -1       212 8.49598E-14 1.35697E-13 3.37758E-13-1.32042E-01 4.91187E-01-5.70225E-15
 -1       216-1.19477E-13-2.09124E-13-6.93889E-18-3.28212E-01 3.74932E-01-1.22590E-14
 -1       222-1.04916E-14-4.99600E-15 8.04634E-14 1.50435E-14 6.20796E-01 7.07615E-15
 -1       228 5.10703E-15-3.02536E-14 8.67084E-14 4.31599E-15 3.45810E-01 4.74666E-15
 -1       234-1.00198E-14 2.43139E-14 9.13852E-14-8.31973E-15 3.93499E-01-2.63168E-15
 -1       240 2.82968E-14-1.02973E-14 7.04298E-14 4.82184E-14 3.85191E-01 9.58044E-15
 -1       246 2.50772E-14-4.49363E-14 6.85424E-14-3.48402E-14 3.95270E-01-1.60716E-14
 -1       252-3.88092E-14-2.80914E-13-1.90403E-14-2.55802E-14 3.49320E-01-5.48292E-15
 -1       258 6.70297E-15 1.41137E-13 5.87030E-14 9.11424E-15 5.73386E-01-5.61415E-15
 -3
    1PSTEP                         3           1           1          
  100CL  101 1.000000000          81                     0    1           1
 -4  ERROR       1    1
 -5  STR(%)      1    1    0    0
 -1         1 6.08651E+01
 -1         2 6.08651E+01
 -1         3 6.08651E+01
 -1         4 6.08651E+01
 -1         5 4.70004E+01
 -1         6 4.70004E+01
 -1         7 4.70004E+01
 -1         8 4.70004E+01
 -1        10 6.08651E+01
 -1        13 6.08651E+01
 -1        16 6.08651E+01
 -1        19 6.08651E+01
 -1        22 4.70004E+01
 -1        25 4.70004E+01
 -1        28 4.70004E+01
 -1        31 4.70004E+01
 -1        34 6.08651E+01
 -1        36 5.79534E+01
 -1        38 5.84113E+01
 -1        40 5.91987E+01
 -1        42 6.00778E+01
 -1        44 6.23107E+01
 -1        46 6.23107E+01
 -1        49 6.23107E+01
 -1        51 6.23107E+01
 -1        53 6.00778E+01
 -1        55 5.91987E+01
 -1        57 5.84113E+01
 -1        59 5.79534E+01
 -1        61 6.08651E+01
 -1        64 6.08651E+01
 -1        66 5.79534E+01
 -1        68 5.84113E+01
 -1        70 5.91987E+01
 -1        72 6.00778E+01
 -1        74 6.23107E+01
 -1        76 6.23107E+01
 -1        79 6.08651E+01
 -1        81 5.79534E+01
 -1        83 5.84113E+01
 -1        85 5.91987E+01
 -1        87 6.00778E+01
 -1        89 6.23107E+01
 -1        91 6.23107E+01
 -1        95 6.08651E+01
 -1       100 4.70004E+01
 -1       105 6.08651E+01
 -1       109 5.79534E+01
 -1       113 5.84113E+01
 -1       117 5.91987E+01
 -1       121 6.00778E+01
 -1       125 6.23107E+01
 -1       129 6.23107E+01
 -1       134 6.08651E+01
 -1       138 5.79534E+01
 -1       142 5.84113E+01
 -1       146 5.91987E+01
 -1       150 6.00778E+01
 -1       154 6.23107E+01
 -1       158 6.23107E+01
 -1       163 6.08651E+01
 -1       167 5.79534E+01
 -1       171 5.84113E+01
 -1       175 5.91987E+01
 -1       179 6.00778E+01
 -1       183 6.23107E+01
 -1       187 6.23107E+01
 -1       192 6.08651E+01
 -1       196 5.79534E+01
 -1       200 5.84113E+01
 -1       204 5.91987E+01
 -1       208 6.00778E+01
 -1       212 6.23107E+01
 -1       216 6.23107E+01
 -1       222 6.08651E+01
 -1       228 5.79534E+01
 -1       234 5.84113E+01
 -1       240 5.91987E+01
 -1       246 6.00778E+01
 -1       252 6.23107E+01
 -1       258 6.23107E+01
 -3
    1PSTEP                         1           1           2          
  100CL  102 0.00000E+00          81                     3    2           1
 -4  NORM        4    1
 -5  NORMX       1    2	 1    0
 -5  NORMY       1    2	 2    0
 -5  NORMZ       1    2	 3    0
 -5  ALL         1    2	 0    0    1ALL
 -1         1 0.00000E+00 0.00000E+00 0.00000E+00
 -1         2 0.00000E+00 0.00000E+00 0.00000E+00
 -1         3 0.00000E+00 0.00000E+00 0.00000E+00
 -1         4 0.00000E+00 0.00000E+00 0.00000E+00
 -1         5-5.77350E-01-5.77350E-01 5.77350E-01
 -1         6 5.77350E-01-5.77350E-01 5.77350E-01
 -1         7 5.77350E-01 5.77350E-01 5.77350E-01
 -1         8-5.77350E-01 5.77350E-01 5.77350E-01
 -1        10 0.00000E+00 0.00000E+00 0.00000E+00
 -1        13 0.00000E+00 0.00000E+00 0.00000E+00
 -1        16 0.00000E+00 0.00000E+00 0.00000E+00
 -1        19 0.00000E+00 0.00000E+00 0.00000E+00
 -1        22 0.00000E+00-7.07107E-01 7.07107E-01
 -1        25 7.07107E-01 0.00000E+00 7.07107E-01
 -1        28 0.00000E+00 7.07107E-01 7.07107E-01
 -1        31-7.07107E-01 0.00000E+00 7.07107E-01
 -1        34 7.07107E-01-7.07107E-01 0.00000E+00
 -1        36 7.07107E-01-7.07107E-01 0.00000E+00
 -1        38 7.07107E-01-7.07107E-01 0.00000E+00
 -1        40 7.07107E-01-7.07107E-01 0.00000E+00
 -1        42 7.07107E-01-7.07107E-01 0.00000E+00
 -1        44 7.07107E-01-7.07107E-01 0.00000E+00
 -1        46 7.07107E-01-7.07107E-01 0.00000E+00
 -1        49-7.07107E-01-7.07107E-01 0.00000E+00
 -1        51-7.07107E-01-7.07107E-01 0.00000E+00
 -1        53-7.07107E-01-7.07107E-01 0.00000E+00
 -1        55-7.07107E-01-7.07107E-01 0.00000E+00
 -1        57-7.07107E-01-7.07107E-01 0.00000E+00
 -1        59-7.07107E-01-7.07107E-01 0.00000E+00
 -1        61-7.07107E-01-7.07107E-01 0.00000E+00
 -1        64 7.07107E-01 7.07107E-01 0.00000E+00
 -1        66 7.07107E-01 7.07107E-01 0.00000E+00
 -1        68 7.07107E-01 7.07107E-01 0.00000E+00
 -1        70 7.07107E-01 7.07107E-01 0.00000E+00
 -1        72 7.07107E-01 7.07107E-01 0.00000E+00
 -1        74 7.07107E-01 7.07107E-01 0.00000E+00
 -1        76 7.07107E-01 7.07107E-01 0.00000E+00
 -1        79-7.07107E-01 7.07107E-01 0.00000E+00
 -1        81-7.07107E-01 7.07107E-01 0.00000E+00
 -1        83-7.07107E-01 7.07107E-01 0.00000E+00
 -1        85-7.07107E-01 7.07107E-01 0.00000E+00
 -1        87-7.07107E-01 7.07107E-01 0.00000E+00
 -1        89-7.07107E-01 7.07107E-01 0.00000E+00
 -1        91-7.07107E-01 7.07107E-01 0.00000E+00
 -1        95 0.00000E+00 0.00000E+00 0.00000E+00
 -1       100 0.00000E+00 0.00000E+00 1.00000E+00
 -1       105 0.00000E+00-1.00000E+00 0.00000E+00
 -1       109 0.00000E+00-1.00000E+00 0.00000E+00
 -1       113 0.00000E+00-1.00000E+00 0.00000E+00
 -1       117 0.00000E+00-1.00000E+00 0.00000E+00
 -1       121 0.00000E+00-1.00000E+00 0.00000E+00
 -1       125 0.00000E+00-1.00000E+00 0.00000E+00
 -1       129 0.00000E+00-1.00000E+00 0.00000E+00
 -1       134 1.00000E+00 0.00000E+00 0.00000E+00
 -1       138 1.00000E+00 0.00000E+00 0.00000E+00
 -1       142 1.00000E+00 0.00000E+00 0.00000E+00
 -1       146 1.00000E+00 0.00000E+00 0.00000E+00
 -1       150 1.00000E+00 0.00000E+00 0.00000E+00
 -1       154 1.00000E+00 0.00000E+00 0.00000E+00
 -1       158 1.00000E+00 0.00000E+00 0.00000E+00
 -1       163 0.00000E+00 1.00000E+00 0.00000E+00
 -1       167 0.00000E+00 1.00000E+00 0.00000E+00
 -1       171 0.00000E+00 1.00000E+00 0.00000E+00
 -1       175 0.00000E+00 1.00000E+00 0.00000E+00
 -1       179 0.00000E+00 1.00000E+00 0.00000E+00
 -1       183 0.00000E+00 1.00000E+00 0.00000E+00
 -1       187 0.00000E+00 1.00000E+00 0.00000E+00
 -1       192-1.00000E+00 0.00000E+00 0.00000E+00
 -1       196-1.00000E+00 0.00000E+00 0.00000E+00
 -1       200-1.00000E+00 0.00000E+00 0.00000E+00
 -1       204-1.00000E+00 0.00000E+00 0.00000E+00
 -1       208-1.00000E+00 0.00000E+00 0.00000E+00
 -1       212-1.00000E+00 0.00000E+00 0.00000E+00
 -1       216-1.00000E+00 0.00000E+00 0.00000E+00
 -1       222 0.00000E+00 0.00000E+00 0.00000E+00
 -1       228 0.00000E+00 0.00000E+00 0.00000E+00
 -1       234 0.00000E+00 0.00000E+00 0.00000E+00
 -1       240 0.00000E+00 0.00000E+00 0.00000E+00
 -1       246 0.00000E+00 0.00000E+00 0.00000E+00
 -1       252 0.00000E+00 0.00000E+00 0.00000E+00
 -1       258 0.00000E+00 0.00000E+00 0.00000E+00
 -3
    1PSTEP                         2           1           2          
  100CL  103 0.00000E+00          81                     3    3           1
 -4  SENSTRE     2    1
 -5  DFDN        1    1    1    0
 -5  DFDNFIL     1    1    2    0
 -1         1 0.00000E+00 0.00000E+00
 -1         2 0.00000E+00 0.00000E+00
 -1         3 0.00000E+00 0.00000E+00
 -1         4 0.00000E+00 0.00000E+00
 -1         5-2.13579E-06 6.18104E-02
 -1         6-2.16776E-06 6.18104E-02
 -1         7-1.96718E-06 6.18103E-02
 -1         8-2.42169E-06 6.18103E-02
 -1        10 0.00000E+00 0.00000E+00
 -1        13 0.00000E+00 0.00000E+00
 -1        16 0.00000E+00 0.00000E+00
 -1        19 0.00000E+00 0.00000E+00
 -1        22-6.60619E-06 6.16274E-02
 -1        25-3.64396E-06 6.16017E-02
 -1        28-6.14668E-06 6.16273E-02
 -1        31-3.71912E-06 6.16017E-02
 -1        34-1.04586E+00-9.99973E-01
 -1        36-1.49020E-01-6.06738E-01
 -1        38-1.10093E-02-1.79635E-01
 -1        40-1.03681E-03-2.05684E-02
 -1        42-1.32363E-04-1.70617E-03
 -1        44-5.21311E-06 8.35480E-03
 -1        46-4.06361E-06 3.71293E-02
 -1        49-3.71499E-06 3.71293E-02
 -1        51-4.89180E-06 8.35482E-03
 -1        53-1.32721E-04-1.70617E-03
 -1        55-1.03773E-03-2.05685E-02
 -1        57-1.10456E-02-1.79637E-01
 -1        59-1.49279E-01-6.06749E-01
 -1        61-1.05043E+00-1.00000E+00
 -1        64-1.05006E+00-9.99966E-01
 -1        66-1.49490E-01-6.06745E-01
 -1        68-1.10951E-02-1.79658E-01
 -1        70-1.04360E-03-2.05833E-02
 -1        72-1.33681E-04-1.70891E-03
 -1        74-5.47337E-06 8.35438E-03
 -1        76-4.10436E-06 3.71292E-02
 -1        79-1.04550E+00-9.99938E-01
 -1        81-1.49230E-01-6.06734E-01
 -1        83-1.10588E-02-1.79656E-01
 -1        85-1.04254E-03-2.05832E-02
 -1        87-1.33121E-04-1.70888E-03
 -1        89-5.40569E-06 8.35440E-03
 -1        91-4.07655E-06 3.71292E-02
 -1        95 0.00000E+00 0.00000E+00
 -1       100 5.44397E-01 6.17061E-02
 -1       105-2.19306E+00-9.97802E-01
 -1       109-2.31572E-01-6.07563E-01
 -1       113-1.74850E-02-1.80975E-01
 -1       117-2.39714E-03-2.07504E-02
 -1       121-1.20258E-04-1.71971E-03
 -1       125-3.72404E-05 8.45359E-03
 -1       129-1.08021E-05 3.71678E-02
 -1       134-4.37615E-01-9.83373E-01
 -1       138-1.05495E-01-6.08218E-01
 -1       142-7.58447E-03-1.84357E-01
 -1       146-8.05391E-04-2.12213E-02
 -1       150-7.91096E-05-1.75513E-03
 -1       154-6.78011E-06 8.71848E-03
 -1       158-1.05556E-06 3.74141E-02
 -1       163-2.19239E+00-9.97769E-01
 -1       167-2.31990E-01-6.07560E-01
 -1       171-1.75835E-02-1.80995E-01
 -1       175-2.40689E-03-2.07645E-02
 -1       179-1.22152E-04-1.72229E-03
 -1       183-3.84611E-05 8.45320E-03
 -1       187-1.12612E-05 3.71677E-02
 -1       192-4.37615E-01-9.83373E-01
 -1       196-1.05495E-01-6.08218E-01
 -1       200-7.58442E-03-1.84357E-01
 -1       204-8.05258E-04-2.12213E-02
 -1       208-7.89538E-05-1.75512E-03