
 displacements (vx,vy,vz) for set NALL and time  0.1000000E+01

         1  0.000000E+00  0.000000E+00  0.000000E+00
         2  2.624966E-02  0.000000E+00  0.000000E+00
         3  2.624966E-02  2.624966E-02  0.000000E+00
         4 -3.132178E-17  2.624966E-02  0.000000E+00
         5 -2.930095E-16  1.181860E-15  0.000000E+00
         6  2.624966E-02  1.128138E-15  0.000000E+00
         7  2.624966E-02  2.624966E-02  0.000000E+00
         8 -1.289589E-16  2.624966E-02  0.000000E+00
         9  6.562414E-03  4.125225E-18  0.000000E+00
        10  1.312483E-02 -2.098718E-17  0.000000E+00
        11  1.968724E-02 -1.542937E-17  0.000000E+00
        12  2.624966E-02  6.562414E-03  0.000000E+00
        13  2.624966E-02  1.312483E-02  0.000000E+00
        14  2.624966E-02  1.968724E-02  0.000000E+00
        15  1.968724E-02  2.624966E-02  0.000000E+00
        16  1.312483E-02  2.624966E-02  0.000000E+00
        17  6.562414E-03  2.624966E-02  0.000000E+00
        18 -3.719694E-17  1.968724E-02  0.000000E+00
        19  6.875175E-18  1.312483E-02  0.000000E+00
        20  1.773594E-17  6.562414E-03  0.000000E+00
        21  6.562414E-03  1.155293E-15  0.000000E+00
        22  1.312483E-02  1.155060E-15  0.000000E+00
        23  1.968724E-02  1.151762E-15  0.000000E+00
        24  2.624966E-02  6.562414E-03  0.000000E+00
        25  2.624966E-02  1.312483E-02  0.000000E+00
        26  2.624966E-02  1.968724E-02  0.000000E+00
        27  1.968724E-02  2.624966E-02  0.000000E+00
        28  1.312483E-02  2.624966E-02  0.000000E+00
        29  6.562414E-03  2.624966E-02  0.000000E+00
        30 -2.188318E-16  1.968724E-02  0.000000E+00
        31 -2.559902E-16  1.312483E-02  0.000000E+00
        32 -2.654601E-16  6.562414E-03  0.000000E+00
        33  2.624966E-02 -1.563546E-17  1.007160E-16
        34  2.624966E-02  1.330641E-16  1.309889E-16
        35  2.624966E-02  2.394293E-16  1.619063E-16
        36  2.624966E-02  3.340192E-16  2.264910E-16
        37  2.624966E-02  3.889729E-16  1.247167E-16
        38  2.624966E-02  4.228462E-16  4.091008E-17
        39  2.624966E-02  4.712563E-16  5.039271E-17
        40  2.624966E-02  4.924088E-16 -2.931092E-17
        41  2.624966E-02  5.543914E-16  2.084361E-17
        42  2.624966E-02  5.313313E-16 -9.543007E-18
        43  2.624966E-02  6.066234E-16  9.262553E-17
        44  2.624966E-02  7.277246E-16  1.310661E-16
        45  2.624966E-02  8.872224E-16  8.664720E-17
        46  2.624966E-02  1.033776E-15  1.040690E-16
        47  2.624966E-02  1.099091E-15  1.764503E-17
        48 -2.779610E-16  1.166108E-15  4.579096E-17
        49 -2.635958E-16  1.111447E-15  1.014733E-16
        50 -3.218009E-16  9.737211E-16  1.393917E-16
        51 -2.885747E-16  8.350330E-16  1.578034E-16
        52 -3.280766E-16  6.847876E-16  9.442053E-17
        53 -3.227437E-16  5.803387E-16  1.902349E-17
        54 -3.248102E-16  5.745689E-16  2.661761E-17
        55 -3.512174E-16  5.300484E-16  3.110503E-17
        56 -3.364930E-16  5.223078E-16  7.182641E-18
        57 -3.438671E-16  4.795025E-16 -8.074693E-18
        58 -2.710113E-16  4.696523E-16  2.200770E-17
        59 -2.376187E-16  3.826557E-16 -3.179939E-17
        60 -1.247765E-16  2.494521E-16  4.742956E-17
        61 -3.401995E-17  1.657367E-16  6.618236E-17
        62 -6.956206E-18  3.666611E-17  3.708122E-17
        63  2.624966E-02  2.624966E-02 -3.070737E-17
        64  2.624966E-02  2.624966E-02 -9.656408E-17
        65  2.624966E-02  2.624966E-02 -7.236131E-17
        66  2.624966E-02  2.624966E-02 -4.592760E-18
        67  2.624966E-02  2.624966E-02  8.968409E-18
        68  2.624966E-02  2.624966E-02 -4.494778E-17
        69  2.624966E-02  2.624966E-02 -4.468959E-17
        70  2.624966E-02  2.624966E-02  3.109021E-17
        71  2.624966E-02  2.624966E-02 -5.078083E-17
        72  2.624966E-02  2.624966E-02 -8.826807E-17
        73  2.624966E-02  2.624966E-02 -1.155147E-16
        74  2.624966E-02  2.624966E-02 -1.503478E-16
        75  2.624966E-02  2.624966E-02 -2.025784E-16
        76  2.624966E-02  2.624966E-02 -1.654436E-16
        77  2.624966E-02  2.624966E-02 -5.497225E-17
        78  1.759565E-17  2.624966E-02 -1.169058E-16
        79 -7.149734E-17  2.624966E-02 -1.310788E-16
        80 -7.654822E-17  2.624966E-02 -1.988297E-16
        81 -1.620772E-16  2.624966E-02 -1.893047E-16
        82 -2.213342E-16  2.624966E-02 -1.390675E-16
        83 -2.410076E-16  2.624966E-02 -2.990053E-17
        84 -3.201408E-16  2.624966E-02 -5.225541E-17
        85 -2.707919E-16  2.624966E-02 -2.382301E-17
        86 -2.846588E-16  2.624966E-02 -1.031958E-17
        87 -2.800207E-16  2.624966E-02 -3.857906E-17
        88 -2.663456E-16  2.624966E-02 -1.261495E-16
        89 -2.357890E-16  2.624966E-02 -1.617957E-16
        90 -2.290002E-16  2.624966E-02 -1.406213E-16
        91 -2.044337E-16  2.624966E-02 -9.406480E-17
        92 -1.649237E-16  2.624966E-02 -5.823064E-17
        93  1.312483E-02  6.562414E-03  0.000000E+00
        94  6.562414E-03  1.312483E-02  0.000000E+00
        95  1.312483E-02  1.312483E-02  0.000000E+00
        96  1.968724E-02  1.312483E-02  0.000000E+00
        97  1.312483E-02  1.968724E-02  0.000000E+00
        98  1.312483E-02  6.562414E-03  0.000000E+00
        99  6.562414E-03  1.312483E-02  0.000000E+00
       100  1.312483E-02  1.312483E-02  0.000000E+00
       101  1.968724E-02  1.312483E-02  0.000000E+00
       102  1.312483E-02  1.968724E-02  0.000000E+00
       103  1.312483E-02  2.228486E-17  6.813812E-17
       104  6.562414E-03  1.496944E-16  7.680619E-17
       105  1.312483E-02  1.313292E-16  9.085630E-17
       106  1.968724E-02  1.276874E-16  1.136838E-16
       107  1.312483E-02  2.456915E-16  1.183671E-16
       108  6.562414E-03  3.571822E-16  3.042685E-17
       109  1.312483E-02  3.384167E-16  8.547914E-17
       110  1.968724E-02  3.392071E-16  1.476722E-16
       111  1.312483E-02  4.348004E-16  7.331496E-17
       112  6.562414E-03  5.073578E-16  6.218723E-18
       113  1.312483E-02  4.993360E-16  2.635196E-17
       114  1.968724E-02  4.636953E-16  3.231730E-17
       115  1.312483E-02  5.019694E-16  1.729996E-17
       116  6.562414E-03  5.304805E-16  3.328704E-17
       117  1.312483E-02  5.415678E-16  3.271273E-17
       118  1.968724E-02  5.191548E-16 -4.160175E-18
       119  1.312483E-02  5.534768E-16 -1.024052E-17
       120  6.562414E-03  5.872858E-16  3.230031E-17
       121  1.312483E-02  5.715703E-16  5.296054E-17
       122  1.968724E-02  5.475838E-16  2.290152E-17
       123  1.312483E-02  6.591568E-16  8.652272E-17
       124  6.562414E-03  7.934958E-16  1.425546E-16
       125  1.312483E-02  7.572255E-16  1.279423E-16
       126  1.968724E-02  7.419100E-16  1.268932E-16
       127  1.312483E-02  9.340419E-16  1.253477E-16
       128  6.562414E-03  1.099461E-15  9.147135E-17
       129  1.312483E-02  1.081301E-15  7.929658E-17
       130  1.968724E-02  1.057755E-15  8.765405E-17
       131  1.312483E-02  1.140959E-15  5.254925E-17
       132  2.624966E-02  1.312483E-02 -6.207441E-18
       133  2.624966E-02  6.562414E-03  9.249761E-17
       134  2.624966E-02  1.312483E-02  5.997468E-17
       135  2.624966E-02  1.968724E-02 -2.204533E-17
       136  2.624966E-02  1.312483E-02  5.505755E-17
       137  2.624966E-02  6.562414E-03  1.584065E-16
       138  2.624966E-02  1.312483E-02  9.033514E-17
       139  2.624966E-02  1.968724E-02  4.983735E-17
       140  2.624966E-02  1.312483E-02  6.279007E-17
       141  2.624966E-02  6.562414E-03  4.573379E-17
       142  2.624966E-02  1.312483E-02  4.400479E-17
       143  2.624966E-02  1.968724E-02  4.070381E-19
       144  2.624966E-02  1.312483E-02 -1.537346E-17
       145  2.624966E-02  6.562414E-03 -2.610229E-17
       146  2.624966E-02  1.312483E-02 -1.315026E-17
       147  2.624966E-02  1.968724E-02  1.760282E-18
       148  2.624966E-02  1.312483E-02 -1.946345E-17
       149  2.624966E-02  6.562414E-03 -1.349516E-17
       150  2.624966E-02  1.312483E-02 -2.714362E-17
       151  2.624966E-02  1.968724E-02 -5.124824E-17
       152  2.624966E-02  1.312483E-02 -1.016678E-17
       153  2.624966E-02  6.562414E-03  4.786389E-17
       154  2.624966E-02  1.312483E-02 -2.247681E-17
       155  2.624966E-02  1.968724E-02 -8.758323E-17
       156  2.624966E-02  1.312483E-02 -6.358125E-17
       157  2.624966E-02  6.562414E-03  2.565294E-17
       158  2.624966E-02  1.312483E-02 -5.433540E-17
       159  2.624966E-02  1.968724E-02 -1.115718E-16
       160  2.624966E-02  1.312483E-02 -1.612135E-17
       161  1.312483E-02  2.624966E-02 -8.028179E-17
       162  1.968724E-02  2.624966E-02 -9.903777E-17
       163  1.312483E-02  2.624966E-02 -1.048272E-16
       164  6.562414E-03  2.624966E-02 -1.306113E-16
       165  1.312483E-02  2.624966E-02 -1.312348E-16
       166  1.968724E-02  2.624966E-02 -6.948349E-17
       167  1.312483E-02  2.624966E-02 -1.033676E-16
       168  6.562414E-03  2.624966E-02 -1.321412E-16
       169  1.312483E-02  2.624966E-02 -6.421400E-17
       170  1.968724E-02  2.624966E-02 -2.175465E-17
       171  1.312483E-02  2.624966E-02 -2.277291E-17
       172  6.562414E-03  2.624966E-02 -3.940093E-17
       173  1.312483E-02  2.624966E-02 -2.624636E-17
       174  1.968724E-02  2.624966E-02 -1.797370E-17
       175  1.312483E-02  2.624966E-02 -4.363900E-17
       176  6.562414E-03  2.624966E-02 -2.516756E-17
       177  1.312483E-02  2.624966E-02 -3.007422E-17
       178  1.968724E-02  2.624966E-02 -5.851633E-17
       179  1.312483E-02  2.624966E-02 -2.972182E-17
       180  6.562414E-03  2.624966E-02 -3.683807E-17
       181  1.312483E-02  2.624966E-02 -1.185341E-16
       182  1.968724E-02  2.624966E-02 -1.785451E-16
       183  1.312483E-02  2.624966E-02 -2.007750E-16
       184  6.562414E-03  2.624966E-02 -1.845433E-16
       185  1.312483E-02  2.624966E-02 -1.552213E-16
       186  1.968724E-02  2.624966E-02 -1.431982E-16
       187  1.312483E-02  2.624966E-02 -1.230848E-16
       188  6.562414E-03  2.624966E-02 -1.106740E-16
       189  1.312483E-02  2.624966E-02 -6.166040E-17
       190 -3.603312E-17  1.312483E-02 -4.657710E-17
       191 -4.670489E-17  1.968724E-02 -9.459401E-17
       192 -3.510178E-17  1.312483E-02 -5.627428E-17
       193 -4.663689E-17  6.562414E-03  4.744792E-18
       194 -9.702783E-17  1.312483E-02 -7.728096E-17
       195 -1.742195E-16  1.968724E-02 -1.388201E-16
       196 -1.844448E-16  1.312483E-02 -9.417751E-17
       197 -1.933575E-16  6.562414E-03 -6.485707E-17
       198 -2.761217E-16  1.312483E-02 -6.200571E-17
       199 -2.897484E-16  1.968724E-02 -3.520500E-17
       200 -3.186797E-16  1.312483E-02 -4.688738E-17
       201 -3.373416E-16  6.562414E-03 -2.531847E-17
       202 -3.319208E-16  1.312483E-02 -5.200580E-18
       203 -3.078387E-16  1.968724E-02 -9.362967E-18
       204 -3.366355E-16  1.312483E-02  1.015304E-17
       205 -3.386831E-16  6.562414E-03  1.880332E-17
       206 -2.967376E-16  1.312483E-02 -1.535251E-17
       207 -2.960185E-16  1.968724E-02 -1.177503E-17
       208 -3.075336E-16  1.312483E-02  1.067931E-17
       209 -3.122416E-16  6.562414E-03  1.625404E-17
       210 -3.194247E-16  1.312483E-02 -2.219192E-17
       211 -2.831360E-16  1.968724E-02 -8.581413E-17
       212 -3.025298E-16  1.312483E-02 -1.459908E-17
       213 -2.879530E-16  6.562414E-03  6.604275E-17
       214 -2.688691E-16  1.312483E-02 -6.832238E-18
       215 -2.152536E-16  1.968724E-02 -3.960943E-17
       216 -2.452809E-16  1.312483E-02  1.058466E-17
       217 -2.682204E-16  6.562414E-03  5.991813E-17
       218 -2.292079E-16  1.312483E-02 -9.854609E-18
       219  1.312483E-02  1.312483E-02 -1.470326E-17
       220  1.312483E-02  6.562414E-03  3.095280E-17
       221  6.562414E-03  1.312483E-02 -4.100671E-17
       222  1.312483E-02  1.312483E-02 -2.974299E-17
       223  1.968724E-02  1.312483E-02  6.777263E-18
       224  1.312483E-02  1.968724E-02 -7.296933E-17
       225  1.312483E-02  1.312483E-02 -8.185101E-19
       226  1.312483E-02  6.562414E-03  4.335509E-17
       227  6.562414E-03  1.312483E-02 -4.843923E-17
       228  1.312483E-02  1.312483E-02  2.794546E-18
       229  1.968724E-02  1.312483E-02  5.415681E-17
       230  1.312483E-02  1.968724E-02 -4.690901E-17
       231  1.312483E-02  1.312483E-02 -4.035245E-18
       232  1.312483E-02  6.562414E-03  5.691052E-18
       233  6.562414E-03  1.312483E-02 -2.395464E-17
       234  1.312483E-02  1.312483E-02 -1.518940E-17
       235  1.968724E-02  1.312483E-02  7.381268E-18
       236  1.312483E-02  1.968724E-02 -2.172105E-17
       237  1.312483E-02  1.312483E-02  4.144338E-18
       238  1.312483E-02  6.562414E-03 -4.946254E-18
       239  6.562414E-03  1.312483E-02 -2.091009E-17
       240  1.312483E-02  1.312483E-02 -4.014270E-17
       241  1.968724E-02  1.312483E-02 -2.759945E-17
       242  1.312483E-02  1.968724E-02 -3.975211E-17
       243  1.312483E-02  1.312483E-02 -3.793834E-18
       244  1.312483E-02  6.562414E-03  2.431237E-17
       245  6.562414E-03  1.312483E-02  1.626184E-18
       246  1.312483E-02  1.312483E-02 -1.083198E-17
       247  1.968724E-02  1.312483E-02 -1.566671E-17
       248  1.312483E-02  1.968724E-02 -2.456767E-17
       249  1.312483E-02  1.312483E-02 -1.756073E-17
       250  1.312483E-02  6.562414E-03  5.126276E-17
       251  6.562414E-03  1.312483E-02 -1.773142E-17
       252  1.312483E-02  1.312483E-02 -1.820429E-17
       253  1.968724E-02  1.312483E-02 -2.390914E-17
       254  1.312483E-02  1.968724E-02 -1.052218E-16
       255  1.312483E-02  1.312483E-02 -2.831683E-17
       256  1.312483E-02  6.562414E-03  2.149808E-17
       257  6.562414E-03  1.312483E-02 -1.597201E-17
       258  1.312483E-02  1.312483E-02 -4.099073E-17
       259  1.968724E-02  1.312483E-02 -4.767796E-17
       260  1.312483E-02  1.968724E-02 -8.981083E-17
       261  1.312483E-02  1.312483E-02  4.547345E-18

 stresses (elem, integ.pnt.,sxx,syy,szz,sxy,sxz,syz) for set EALL and time  0.1000000E+01

         1   1 -3.958028E-03 -3.958028E-03 -8.939393E+02  7.521911E-13 -4.519897E-14 -9.146657E-14
         1   2 -3.958028E-03 -3.958028E-03 -8.939393E+02 -1.356032E-12 -2.527058E-17 -2.092630E-14
         1   3 -3.958028E-03 -3.958028E-03 -8.939393E+02 -9.072394E-13 -4.028118E-13  5.382656E-13
         1   4 -3.958028E-03 -3.958028E-03 -8.939393E+02  4.827967E-13  7.764695E-13  2.616704E-13
         1   5 -3.958028E-03 -3.958028E-03 -8.939393E+02 -6.231928E-13  6.539130E-14  2.357205E-13
         1   6 -3.958028E-03 -3.958028E-03 -8.939393E+02  7.892681E-13  1.859297E-14  1.905822E-13
         1   7 -3.958028E-03 -3.958028E-03 -8.939393E+02  5.802681E-13  6.242091E-13 -6.726845E-13
         1   8 -3.958028E-03 -3.958028E-03 -8.939393E+02 -2.347949E-13 -2.677243E-13 -5.454228E-14
         2   1 -3.958028E-03 -3.958028E-03 -8.939393E+02 -6.727421E-13 -1.590405E-13 -4.657009E-13
         2   2 -3.958028E-03 -3.958028E-03 -8.939393E+02  8.147655E-13  5.633256E-13 -1.664107E-12
         2   3 -3.958028E-03 -3.958028E-03 -8.939393E+02  8.969895E-13 -1.383727E-13 -9.045747E-14
         2   4 -3.958028E-03 -3.958028E-03 -8.939393E+02  1.943477E-13 -8.115113E-13  4.062917E-13
         2   5 -3.958028E-03 -3.958028E-03 -8.939393E+02  6.876919E-13 -3.734401E-14  1.396290E-13
         2   6 -3.958028E-03 -3.958028E-03 -8.939393E+02 -1.532357E-12  1.729138E-13  7.301794E-13
         2   7 -3.958028E-03 -3.958028E-03 -8.939393E+02  2.989965E-13 -8.057657E-13 -3.744836E-13
         2   8 -3.958028E-03 -3.958028E-03 -8.939393E+02 -2.466721E-13 -5.286893E-14 -5.740172E-13
         3   1 -3.958028E-03 -3.958028E-03 -8.939393E+02 -8.770686E-13  1.262369E-13  5.713553E-13
         3   2 -3.958028E-03 -3.958028E-03 -8.939393E+02  9.375937E-13  2.474742E-13  3.468056E-14
         3   3 -3.958028E-03 -3.958028E-03 -8.939393E+02  6.627633E-13  1.036594E-12 -1.084441E-12
         3   4 -3.958028E-03 -3.958028E-03 -8.939393E+02 -6.404460E-14 -1.431454E-12 -4.202963E-13
         3   5 -3.958028E-03 -3.958028E-03 -8.939393E+02  3.712417E-13  4.942192E-13 -2.400617E-13
         3   6 -3.958028E-03 -3.958028E-03 -8.939393E+02 -7.367867E-13 -2.325055E-13 -4.620888E-14
         3   7 -3.958028E-03 -3.958028E-03 -8.939393E+02 -3.314000E-13 -1.148289E-12  8.183057E-13
         3   8 -3.958028E-03 -3.958028E-03 -8.939393E+02 -6.404460E-14  1.749052E-12  4.392843E-13
         4   1 -3.958028E-03 -3.958028E-03 -8.939393E+02  1.644481E-12 -4.138319E-13  2.647823E-13
         4   2 -3.958028E-03 -3.958028E-03 -8.939393E+02 -5.905181E-13  3.461982E-13  1.537099E-12
         4   3 -3.958028E-03 -3.958028E-03 -8.939393E+02 -1.584681E-12 -1.673212E-12 -8.255248E-14
         4   4 -3.958028E-03 -3.958028E-03 -8.939393E+02  9.268891E-13  2.133224E-12 -2.621990E-13
         4   5 -3.958028E-03 -3.958028E-03 -8.939393E+02 -2.541470E-13 -4.847698E-13 -1.373025E-13
         4   6 -3.958028E-03 -3.958028E-03 -8.939393E+02  1.046488E-12  1.078625E-13 -8.071975E-13
         4   7 -3.958028E-03 -3.958028E-03 -8.939393E+02 -3.288961E-13  7.635601E-13  3.213389E-13
         4   8 -3.958028E-03 -3.958028E-03 -8.939393E+02 -6.951669E-13 -1.235285E-12  3.496181E-13
         5   1 -3.958028E-03 -3.958028E-03 -8.939393E+02  1.250699E-13 -7.218801E-13 -1.075524E-12
         5   2 -3.958028E-03 -3.958028E-03 -8.939393E+02  4.855712E-13  5.259205E-13 -6.774839E-13
         5   3 -3.958028E-03 -3.958028E-03 -8.939393E+02  9.622601E-13 -7.735421E-14  3.167589E-13
         5   4 -3.958028E-03 -3.958028E-03 -8.939393E+02 -2.272285E-14  1.764019E-13 -1.011717E-13
         5   5 -3.958028E-03 -3.958028E-03 -8.939393E+02  9.024608E-13 -5.287229E-14  4.057002E-13
         5   6 -3.958028E-03 -3.958028E-03 -8.939393E+02 -5.011172E-13 -2.095985E-13 -3.787658E-13
         5   7 -3.958028E-03 -3.958028E-03 -8.939393E+02 -6.149464E-13  1.286345E-13  1.331569E-13
         5   8 -3.958028E-03 -3.958028E-03 -8.939393E+02  4.855712E-13  2.214917E-14 -8.575137E-14
         6   1 -3.958028E-03 -3.958028E-03 -8.939393E+02 -9.717386E-14  5.787103E-14 -2.754182E-13
         6   2 -3.958028E-03 -3.958028E-03 -8.939393E+02 -5.381937E-13 -5.895161E-13  1.777843E-13
         6   3 -3.958028E-03 -3.958028E-03 -8.939393E+02 -9.567888E-13  5.735117E-14 -1.417344E-13
         6   4 -3.958028E-03 -3.958028E-03 -8.939393E+02  2.541470E-13  3.178741E-13  8.040515E-13
         6   5 -3.958028E-03 -3.958028E-03 -8.939393E+02 -1.143662E-12 -5.126335E-13 -2.655847E-13
         6   6 -3.958028E-03 -3.958028E-03 -8.939393E+02 -4.036453E-13  1.039611E-12 -8.211805E-13
         6   7 -3.958028E-03 -3.958028E-03 -8.939393E+02 -5.680933E-13 -4.851854E-13  3.185221E-13
         6   8 -3.958028E-03 -3.958028E-03 -8.939393E+02 -1.068912E-12  5.848247E-13 -2.640572E-13
         7   1 -3.958028E-03 -3.958028E-03 -8.939393E+02 -2.138583E-13 -8.666923E-14  1.129861E-12
         7   2 -3.958028E-03 -3.958028E-03 -8.939393E+02 -5.960053E-13  5.642255E-13  3.940930E-13
         7   3 -3.958028E-03 -3.958028E-03 -8.939393E+02 -1.140747E-12  1.884080E-13 -5.671398E-13
         7   4 -3.958028E-03 -3.958028E-03 -8.939393E+02  1.963354E-13  2.565068E-13  1.785952E-13
         7   5 -3.958028E-03 -3.958028E-03 -8.939393E+02 -3.259819E-13 -8.865268E-14 -1.605658E-13
         7   6 -3.958028E-03 -3.958028E-03 -8.939393E+02  1.664358E-13  6.793946E-14 -5.746147E-14
         7   7 -3.958028E-03 -3.958028E-03 -8.939393E+02  6.980811E-13  5.041055E-14  2.250428E-13
         7   8 -3.958028E-03 -3.958028E-03 -8.939393E+02 -1.089350E-12 -9.438631E-13  3.876745E-13
         8   1 -3.958028E-03 -3.958028E-03 -8.939393E+02 -6.577923E-13  3.230163E-13  2.724644E-13
         8   2 -3.958028E-03 -3.958028E-03 -8.939393E+02  7.400163E-13  5.837856E-13 -3.704324E-13
         8   3 -3.958028E-03 -3.958028E-03 -8.939393E+02  1.315585E-12 -6.877563E-13  6.695410E-14
         8   4 -3.958028E-03 -3.958028E-03 -8.939393E+02 -1.494982E-14 -1.564026E-13 -5.016027E-13
         8   5 -3.958028E-03 -3.958028E-03 -8.939393E+02  1.076387E-12 -1.076087E-13 -1.669645E-13
         8   6 -3.958028E-03 -3.958028E-03 -8.939393E+02 -1.001638E-12  5.851888E-13  6.058389E-13
         8   7 -3.958028E-03 -3.958028E-03 -8.939393E+02  2.391972E-13 -6.543341E-13  1.595519E-14
         8   8 -3.958028E-03 -3.958028E-03 -8.939393E+02  8.596149E-13  6.809283E-13  3.815250E-13
         9   1 -3.958028E-03 -3.958028E-03 -8.939393E+02  1.081955E-13  9.066874E-13  1.414602E-13
         9   2 -3.958028E-03 -3.958028E-03 -8.939393E+02 -8.700710E-13 -4.211004E-13  2.104190E-13
         9   3 -3.958028E-03 -3.958028E-03 -8.939393E+02 -1.080316E-12 -1.170277E-13 -3.232466E-13
         9   4 -3.958028E-03 -3.958028E-03 -8.939393E+02  1.918071E-12 -8.690749E-15 -2.567719E-13
         9   5 -3.958028E-03 -3.958028E-03 -8.939393E+02  4.595164E-13 -6.607122E-13 -9.266563E-13
         9   6 -3.958028E-03 -3.958028E-03 -8.939393E+02 -5.785494E-13  9.257832E-13 -1.083369E-13
         9   7 -3.958028E-03 -3.958028E-03 -8.939393E+02 -5.196971E-13  6.725462E-14  4.866859E-14
         9   8 -3.958028E-03 -3.958028E-03 -8.939393E+02  9.014833E-13 -1.044198E-14 -3.686512E-14
        10   1 -3.958028E-03 -3.958028E-03 -8.939393E+02 -2.391972E-13 -9.077815E-13  1.214677E-13
        10   2 -3.958028E-03 -3.958028E-03 -8.939393E+02  8.969895E-13  1.016712E-12 -5.581006E-13
        10   3 -3.958028E-03 -3.958028E-03 -8.939393E+02  1.136187E-12 -3.134067E-14  1.582969E-13
        10   4 -3.958028E-03 -3.958028E-03 -8.939393E+02 -9.493139E-13  1.142007E-13  1.483464E-13
        10   5 -3.958028E-03 -3.958028E-03 -8.939393E+02 -9.866884E-13  2.947865E-13 -5.028962E-14
        10   6 -3.958028E-03 -3.958028E-03 -8.939393E+02  1.494982E-14 -6.507783E-13  2.172400E-13
        10   7 -3.958028E-03 -3.958028E-03 -8.939393E+02  9.567888E-13  2.524415E-13 -2.439984E-13
        10   8 -3.958028E-03 -3.958028E-03 -8.939393E+02 -1.181036E-12  1.557692E-13 -4.435815E-13
        11   1 -3.958028E-03 -3.958028E-03 -8.939393E+02 -3.489262E-13 -1.161478E-13 -2.138026E-13
        11   2 -3.958028E-03 -3.958028E-03 -8.939393E+02  1.659216E-13  2.148905E-13  2.205206E-13
        11   3 -3.958028E-03 -3.958028E-03 -8.939393E+02  8.470598E-13  8.677213E-13 -2.497866E-13
        11   4 -3.958028E-03 -3.958028E-03 -8.939393E+02 -1.074914E-12 -6.893224E-13 -1.707882E-13
        11   5 -3.958028E-03 -3.958028E-03 -8.939393E+02  2.714916E-13  2.355413E-13  1.127913E-12
        11   6 -3.958028E-03 -3.958028E-03 -8.939393E+02  3.137315E-14 -3.319948E-13  3.986830E-13
        11   7 -3.958028E-03 -3.958028E-03 -8.939393E+02  4.209898E-13  2.702620E-14 -8.499937E-13
        11   8 -3.958028E-03 -3.958028E-03 -8.939393E+02 -1.672907E-12  3.628420E-13 -8.633407E-14
        12   1 -3.958028E-03 -3.958028E-03 -8.939393E+02  1.225886E-12  2.349394E-13 -2.071951E-13
        12   2 -3.958028E-03 -3.958028E-03 -8.939393E+02 -7.400163E-13  1.040946E-13  9.981941E-13
        12   3 -3.958028E-03 -3.958028E-03 -8.939393E+02 -1.106287E-12 -1.053495E-12 -3.978378E-13
        12   4 -3.958028E-03 -3.958028E-03 -8.939393E+02  5.307188E-13  1.467763E-12 -7.333140E-13
        12   5 -3.958028E-03 -3.958028E-03 -8.939393E+02  3.438460E-13  2.733730E-13  3.915569E-13
        12   6 -3.958028E-03 -3.958028E-03 -8.939393E+02 -4.036453E-13  6.771960E-13 -6.479174E-13
        12   7 -3.958028E-03 -3.958028E-03 -8.939393E+02 -1.734180E-12 -4.627765E-13  2.671815E-13
        12   8 -3.958028E-03 -3.958028E-03 -8.939393E+02  1.509932E-12 -6.806622E-13  4.994457E-13
        13   1 -3.958028E-03 -3.958028E-03 -8.939393E+02  6.067816E-13  4.599722E-13  3.572613E-13
        13   2 -3.958028E-03 -3.958028E-03 -8.939393E+02 -1.148535E-12 -6.898190E-13 -2.217866E-13
        13   3 -3.958028E-03 -3.958028E-03 -8.939393E+02 -1.182849E-13  6.765937E-13 -4.151082E-13
        13   4 -3.958028E-03 -3.958028E-03 -8.939393E+02  3.015977E-13 -4.215039E-13  1.966836E-13
        13   5 -3.958028E-03 -3.958028E-03 -8.939393E+02 -6.161172E-15 -2.287614E-13 -2.895800E-13
        13   6 -3.958028E-03 -3.958028E-03 -8.939393E+02 -7.962282E-14  5.978503E-13 -2.518388E-13
        13   7 -3.958028E-03 -3.958028E-03 -8.939393E+02 -6.596047E-14 -6.418975E-13  6.531995E-13
        13   8 -3.958028E-03 -3.958028E-03 -8.939393E+02  1.221998E-13  1.134197E-13 -9.966927E-14
        14   1 -3.958028E-03 -3.958028E-03 -8.939393E+02 -4.185951E-13 -6.816040E-13 -4.473858E-13
        14   2 -3.958028E-03 -3.958028E-03 -8.939393E+02  8.820397E-13  1.525373E-12 -7.588494E-14
        14   3 -3.958028E-03 -3.958028E-03 -8.939393E+02  2.989965E-14 -7.969347E-13 -3.466692E-13
        14   4 -3.958028E-03 -3.958028E-03 -8.939393E+02 -5.456686E-13  1.167633E-12 -3.528170E-13
        14   5 -3.958028E-03 -3.958028E-03 -8.939393E+02  2.391972E-13  4.410593E-14 -8.359832E-14
        14   6 -3.958028E-03 -3.958028E-03 -8.939393E+02  3.737456E-14  1.736176E-13 -5.381883E-13
        14   7 -3.958028E-03 -3.958028E-03 -8.939393E+02  9.268891E-13 -2.270353E-14 -2.230163E-13
        14   8 -3.958028E-03 -3.958028E-03 -8.939393E+02  4.185951E-13 -6.266381E-13  2.867741E-13
        15   1 -3.958028E-03 -3.958028E-03 -8.939393E+02 -5.625672E-13  9.454928E-14 -2.429772E-14
        15   2 -3.958028E-03 -3.958028E-03 -8.939393E+02  1.016600E-12  2.730702E-13  1.241163E-13
        15   3 -3.958028E-03 -3.958028E-03 -8.939393E+02  3.568471E-13 -1.302025E-12  7.759025E-13
        15   4 -3.958028E-03 -3.958028E-03 -8.939393E+02 -1.494865E-13  1.749835E-12  1.044938E-12
        15   5 -3.958028E-03 -3.958028E-03 -8.939393E+02 -1.813466E-13 -2.950936E-13 -7.025054E-14
        15   6 -3.958028E-03 -3.958028E-03 -8.939393E+02  3.139581E-13 -2.428949E-13  3.580378E-13
        15   7 -3.958028E-03 -3.958028E-03 -8.939393E+02 -5.849919E-13  1.256806E-12 -3.208399E-13
        15   8 -3.958028E-03 -3.958028E-03 -8.939393E+02  2.990082E-13 -8.169317E-13  1.247764E-13
        16   1 -3.958028E-03 -3.958028E-03 -8.939393E+02  8.072905E-13 -5.406009E-13  1.128526E-13
        16   2 -3.958028E-03 -3.958028E-03 -8.939393E+02 -9.567888E-13  5.296214E-13 -2.487764E-13
        16   3 -3.958028E-03 -3.958028E-03 -8.939393E+02  8.969895E-13  3.467151E-13  8.221111E-13
        16   4 -3.958028E-03 -3.958028E-03 -8.939393E+02  5.830432E-13 -1.048715E-12 -2.326993E-13
        16   5 -3.958028E-03 -3.958028E-03 -8.939393E+02  8.521400E-13 -2.676398E-13  1.184171E-13
        16   6 -3.958028E-03 -3.958028E-03 -8.939393E+02 -1.270735E-13  6.283833E-14  7.873770E-13
        16   7 -3.958028E-03 -3.958028E-03 -8.939393E+02  5.082940E-13 -8.182271E-13  1.859543E-14
        16   8 -3.958028E-03 -3.958028E-03 -8.939393E+02 -6.802170E-13  1.378008E-12 -1.409547E-13
        17   1 -3.958028E-03 -3.958028E-03 -8.939393E+02  3.474802E-13 -1.232543E-13 -4.610333E-14
        17   2 -3.958028E-03 -3.958028E-03 -8.939393E+02 -4.693733E-13 -7.838867E-13 -3.122008E-13
        17   3 -3.958028E-03 -3.958028E-03 -8.939393E+02 -3.103121E-13  2.083265E-13 -5.344391E-13
        17   4 -3.958028E-03 -3.958028E-03 -8.939393E+02 -6.572798E-14 -3.145003E-13 -4.420822E-13
        17   5 -3.958028E-03 -3.958028E-03 -8.939393E+02  1.531325E-13 -3.843875E-13 -2.974958E-13
        17   6 -3.958028E-03 -3.958028E-03 -8.939393E+02 -7.982694E-13  2.421095E-13  1.798027E-13
        17   7 -3.958028E-03 -3.958028E-03 -8.939393E+02 -8.335560E-13 -8.459257E-14 -5.720014E-14
        17   8 -3.958028E-03 -3.958028E-03 -8.939393E+02  5.387062E-14  5.204402E-13 -9.713305E-14
        18   1 -3.958028E-03 -3.958028E-03 -8.939393E+02 -3.139463E-13 -6.235446E-13 -1.559134E-13
        18   2 -3.958028E-03 -3.958028E-03 -8.939393E+02  4.036453E-13  8.239408E-13  5.163187E-13
        18   3 -3.958028E-03 -3.958028E-03 -8.939393E+02  2.391972E-13 -4.381228E-13 -1.856939E-13
        18   4 -3.958028E-03 -3.958028E-03 -8.939393E+02 -5.755683E-13  9.436153E-14 -3.886848E-13
        18   5 -3.958028E-03 -3.958028E-03 -8.939393E+02  1.793979E-13  2.972643E-13 -1.106236E-13
        18   6 -3.958028E-03 -3.958028E-03 -8.939393E+02  7.998156E-13  3.699477E-13 -1.140338E-12
        18   7 -3.958028E-03 -3.958028E-03 -8.939393E+02  9.567888E-13 -6.884143E-14  3.373139E-13
        18   8 -3.958028E-03 -3.958028E-03 -8.939393E+02 -1.465083E-12  3.112128E-14  7.155466E-14
        19   1 -3.958028E-03 -3.958028E-03 -8.939393E+02  1.627600E-13  1.871964E-13  3.651733E-13
        19   2 -3.958028E-03 -3.958028E-03 -8.939393E+02 -1.416156E-13 -1.275249E-14  3.678522E-13
        19   3 -3.958028E-03 -3.958028E-03 -8.939393E+02  4.468066E-13 -2.304353E-13  1.525403E-13
        19   4 -3.958028E-03 -3.958028E-03 -8.939393E+02 -4.854616E-13 -3.798034E-13  2.413041E-13
        19   5 -3.958028E-03 -3.958028E-03 -8.939393E+02 -6.968550E-13 -1.047305E-13  4.137732E-13
        19   6 -3.958028E-03 -3.958028E-03 -8.939393E+02  1.308517E-12  4.886448E-13  3.213403E-14
        19   7 -3.958028E-03 -3.958028E-03 -8.939393E+02  4.318568E-13 -8.444928E-14  7.247585E-14
        19   8 -3.958028E-03 -3.958028E-03 -8.939393E+02  3.218289E-13  3.288427E-13  5.430004E-13
        20   1 -3.958028E-03 -3.958028E-03 -8.939393E+02 -1.345484E-13 -1.306644E-13  2.343027E-13
        20   2 -3.958028E-03 -3.958028E-03 -8.939393E+02  7.624411E-13  4.160861E-13 -5.742926E-13
        20   3 -3.958028E-03 -3.958028E-03 -8.939393E+02 -8.072905E-13  3.725536E-13 -1.264963E-13
        20   4 -3.958028E-03 -3.958028E-03 -8.939393E+02 -6.129428E-13  9.666246E-13  9.557572E-13
        20   5 -3.958028E-03 -3.958028E-03 -8.939393E+02  6.129428E-13  4.348791E-14  1.661760E-13
        20   6 -3.958028E-03 -3.958028E-03 -8.939393E+02 -1.412758E-12  1.273903E-13  3.805591E-13
        20   7 -3.958028E-03 -3.958028E-03 -8.939393E+02 -4.783944E-13 -9.776701E-13  9.359029E-14
        20   8 -3.958028E-03 -3.958028E-03 -8.939393E+02  1.195986E-13 -2.417914E-13 -9.169454E-13
        21   1 -3.958028E-03 -3.958028E-03 -8.939393E+02  6.090227E-13  3.771609E-15  5.831775E-13