
 displacements (vx,vy,vz) for set NALL and time  0.1000000E+01

         1  0.000000E+00  0.000000E+00  0.000000E+00
         2  0.000000E+00  0.000000E+00  0.000000E+00
         3  0.000000E+00  0.000000E+00  0.000000E+00
         4  0.000000E+00  0.000000E+00  0.000000E+00
         5  9.440114E-02 -7.921461E-02 -1.966892E-04
         6  7.921461E-02  9.440114E-02 -1.966892E-04
         7 -9.440114E-02  7.921461E-02 -1.966892E-04
         8 -7.921461E-02 -9.440114E-02 -1.966892E-04
         9  0.000000E+00  0.000000E+00  0.000000E+00
        10  0.000000E+00  0.000000E+00  0.000000E+00
        11  0.000000E+00  0.000000E+00  0.000000E+00
        12  0.000000E+00  0.000000E+00  0.000000E+00
        13  0.000000E+00  0.000000E+00  0.000000E+00
        14  0.000000E+00  0.000000E+00  0.000000E+00
        15  0.000000E+00  0.000000E+00  0.000000E+00
        16  0.000000E+00  0.000000E+00  0.000000E+00
        17  0.000000E+00  0.000000E+00  0.000000E+00
        18  0.000000E+00  0.000000E+00  0.000000E+00
        19  0.000000E+00  0.000000E+00  0.000000E+00
        20  0.000000E+00  0.000000E+00  0.000000E+00
        21  9.060451E-02 -3.581067E-02 -1.966892E-04
        22  8.680788E-02  7.593265E-03 -1.966892E-04
        23  8.301124E-02  5.099720E-02 -1.966892E-04
        24  3.581067E-02  9.060451E-02 -1.966892E-04
        25 -7.593265E-03  8.680788E-02 -1.966892E-04
        26 -5.099720E-02  8.301124E-02 -1.966892E-04
        27 -9.060451E-02  3.581067E-02 -1.966892E-04
        28 -8.680788E-02 -7.593265E-03 -1.966892E-04
        29 -8.301124E-02 -5.099720E-02 -1.966892E-04
        30 -3.581067E-02 -9.060451E-02 -1.966892E-04
        31  7.593265E-03 -8.680788E-02 -1.966892E-04
        32  5.099720E-02 -8.301124E-02 -1.966892E-04
        33  4.787708E-03  4.853706E-03 -9.576121E-06
        34  1.027600E-02  1.050539E-02 -2.203019E-05
        35  1.583237E-02  1.637232E-02 -3.639175E-05
        36  2.111937E-02  2.207200E-02 -4.990430E-05
        37  2.631483E-02  2.779962E-02 -6.161148E-05
        38  3.149169E-02  3.363393E-02 -7.351219E-05
        39  3.661485E-02  3.953848E-02 -8.584943E-05
        40  4.165702E-02  4.548060E-02 -9.834601E-05
        41  4.663349E-02  5.147783E-02 -1.108426E-04
        42  5.155891E-02  5.754831E-02 -1.231798E-04
        43  5.640584E-02  6.365949E-02 -1.350805E-04
        44  6.114446E-02  6.977045E-02 -1.467877E-04
        45  6.583968E-02  7.596672E-02 -1.603003E-04
        46  7.065284E-02  8.245730E-02 -1.746616E-04
        47  7.526584E-02  8.884346E-02 -1.871139E-04
        48  8.884346E-02 -7.526584E-02 -1.871139E-04
        49  8.245730E-02 -7.065284E-02 -1.746616E-04
        50  7.596672E-02 -6.583968E-02 -1.603003E-04
        51  6.977045E-02 -6.114446E-02 -1.467877E-04
        52  6.365949E-02 -5.640584E-02 -1.350805E-04
        53  5.754831E-02 -5.155891E-02 -1.231798E-04
        54  5.147783E-02 -4.663349E-02 -1.108426E-04
        55  4.548060E-02 -4.165702E-02 -9.834601E-05
        56  3.953848E-02 -3.661485E-02 -8.584943E-05
        57  3.363393E-02 -3.149169E-02 -7.351219E-05
        58  2.779962E-02 -2.631483E-02 -6.161148E-05
        59  2.207200E-02 -2.111937E-02 -4.990430E-05
        60  1.637232E-02 -1.583237E-02 -3.639175E-05
        61  1.050539E-02 -1.027600E-02 -2.203019E-05
        62  4.853706E-03 -4.787708E-03 -9.576121E-06
        63 -4.853706E-03  4.787708E-03 -9.576121E-06
        64 -1.050539E-02  1.027600E-02 -2.203019E-05
        65 -1.637232E-02  1.583237E-02 -3.639175E-05
        66 -2.207200E-02  2.111937E-02 -4.990430E-05
        67 -2.779962E-02  2.631483E-02 -6.161148E-05
        68 -3.363393E-02  3.149169E-02 -7.351219E-05
        69 -3.953848E-02  3.661485E-02 -8.584943E-05
        70 -4.548060E-02  4.165702E-02 -9.834601E-05
        71 -5.147783E-02  4.663349E-02 -1.108426E-04
        72 -5.754831E-02  5.155891E-02 -1.231798E-04
        73 -6.365949E-02  5.640584E-02 -1.350805E-04
        74 -6.977045E-02  6.114446E-02 -1.467877E-04
        75 -7.596672E-02  6.583968E-02 -1.603003E-04
        76 -8.245730E-02  7.065284E-02 -1.746616E-04
        77 -8.884346E-02  7.526584E-02 -1.871139E-04
        78 -4.787708E-03 -4.853706E-03 -9.576121E-06
        79 -1.027600E-02 -1.050539E-02 -2.203019E-05
        80 -1.583237E-02 -1.637232E-02 -3.639175E-05
        81 -2.111937E-02 -2.207200E-02 -4.990430E-05
        82 -2.631483E-02 -2.779962E-02 -6.161148E-05
        83 -3.149169E-02 -3.363393E-02 -7.351219E-05
        84 -3.661485E-02 -3.953848E-02 -8.584943E-05
        85 -4.165702E-02 -4.548060E-02 -9.834601E-05
        86 -4.663349E-02 -5.147783E-02 -1.108426E-04
        87 -5.155891E-02 -5.754831E-02 -1.231798E-04
        88 -5.640584E-02 -6.365949E-02 -1.350805E-04
        89 -6.114446E-02 -6.977045E-02 -1.467877E-04
        90 -6.583968E-02 -7.596672E-02 -1.603003E-04
        91 -7.065284E-02 -8.245730E-02 -1.746616E-04
        92 -7.526584E-02 -8.884346E-02 -1.871139E-04
        93  0.000000E+00  0.000000E+00  0.000000E+00
        94  0.000000E+00  0.000000E+00  0.000000E+00
        95  0.000000E+00  0.000000E+00  0.000000E+00
        96  0.000000E+00  0.000000E+00  0.000000E+00
        97  0.000000E+00  0.000000E+00  0.000000E+00
        98  4.340394E-02  3.796633E-03 -1.966892E-04
        99  3.796633E-03 -4.340394E-02 -1.966892E-04
       100  7.915168E-16 -1.365631E-15 -1.966892E-04
       101 -3.796633E-03  4.340394E-02 -1.966892E-04
       102 -4.340394E-02 -3.796633E-03 -1.966892E-04
       103  5.069775E-03  3.310473E-05 -1.052103E-05
       104  1.045595E-02 -5.090890E-03 -1.061935E-03
       105  1.042847E-02  1.126975E-04 -2.208412E-05
       106  1.034581E-02  5.329378E-03  1.016637E-03
       107  1.603641E-02  2.634650E-04 -3.723700E-05
       108  2.183494E-02 -1.031231E-02 -8.225705E-04
       109  2.159286E-02  4.732925E-04 -4.946266E-05
       110  2.136230E-02  1.126907E-02  7.237823E-04
       111  2.707112E-02  7.398967E-04 -6.126990E-05
       112  3.309678E-02 -1.521025E-02 -9.151045E-04
       113  3.256701E-02  1.067872E-03 -7.354201E-05
       114  3.202930E-02  1.735766E-02  7.678303E-04
       115  3.807232E-02  1.457971E-03 -8.607840E-05
       116  4.452278E-02 -1.987059E-02 -9.187696E-04
       117  4.356910E-02  1.908463E-03 -9.834601E-05
       118  4.261445E-02  2.369852E-02  7.220776E-04
       119  4.906061E-02  2.419140E-03 -1.106136E-04
       120  5.604806E-02 -2.427740E-02 -9.645223E-04
       121  5.455004E-02  2.990773E-03 -1.231500E-04
       122  5.305783E-02  3.027182E-02  7.184125E-04
       123  6.001941E-02  3.621951E-03 -1.354221E-04
       124  6.761013E-02 -2.842158E-02 -9.204743E-04
       125  6.546076E-02  4.310509E-03 -1.472294E-04
       126  6.329828E-02  3.705061E-02  6.258784E-04
       127  7.096926E-02  5.068555E-03 -1.594550E-04
       128  7.949055E-02 -3.235843E-02 -1.213329E-03
       129  7.651821E-02  5.893704E-03 -1.746080E-04
       130  7.359794E-02  4.416831E-02  8.652430E-04
       131  8.180935E-02  6.745675E-03 -1.861704E-04
       132 -3.310473E-05  5.069775E-03 -1.052103E-05
       133  5.090890E-03  1.045595E-02 -1.061935E-03
       134 -1.126975E-04  1.042847E-02 -2.208412E-05
       135 -5.329378E-03  1.034581E-02  1.016637E-03
       136 -2.634650E-04  1.603641E-02 -3.723700E-05
       137  1.031231E-02  2.183494E-02 -8.225705E-04
       138 -4.732925E-04  2.159286E-02 -4.946266E-05
       139 -1.126907E-02  2.136230E-02  7.237823E-04
       140 -7.398967E-04  2.707112E-02 -6.126990E-05
       141  1.521025E-02  3.309678E-02 -9.151045E-04
       142 -1.067872E-03  3.256701E-02 -7.354201E-05
       143 -1.735766E-02  3.202930E-02  7.678303E-04
       144 -1.457971E-03  3.807232E-02 -8.607840E-05
       145  1.987059E-02  4.452278E-02 -9.187696E-04
       146 -1.908463E-03  4.356910E-02 -9.834601E-05
       147 -2.369852E-02  4.261445E-02  7.220776E-04
       148 -2.419140E-03  4.906061E-02 -1.106136E-04
       149  2.427740E-02  5.604806E-02 -9.645223E-04
       150 -2.990773E-03  5.455004E-02 -1.231500E-04
       151 -3.027182E-02  5.305783E-02  7.184125E-04
       152 -3.621951E-03  6.001941E-02 -1.354221E-04
       153  2.842158E-02  6.761013E-02 -9.204743E-04
       154 -4.310509E-03  6.546076E-02 -1.472294E-04
       155 -3.705061E-02  6.329828E-02  6.258784E-04
       156 -5.068555E-03  7.096926E-02 -1.594550E-04
       157  3.235843E-02  7.949055E-02 -1.213329E-03
       158 -5.893704E-03  7.651821E-02 -1.746080E-04
       159 -4.416831E-02  7.359794E-02  8.652430E-04
       160 -6.745675E-03  8.180935E-02 -1.861704E-04
       161 -5.069775E-03 -3.310473E-05 -1.052103E-05
       162 -1.045595E-02  5.090890E-03 -1.061935E-03
       163 -1.042847E-02 -1.126975E-04 -2.208412E-05
       164 -1.034581E-02 -5.329378E-03  1.016637E-03
       165 -1.603641E-02 -2.634650E-04 -3.723700E-05
       166 -2.183494E-02  1.031231E-02 -8.225705E-04
       167 -2.159286E-02 -4.732925E-04 -4.946266E-05
       168 -2.136230E-02 -1.126907E-02  7.237823E-04
       169 -2.707112E-02 -7.398967E-04 -6.126990E-05
       170 -3.309678E-02  1.521025E-02 -9.151045E-04
       171 -3.256701E-02 -1.067872E-03 -7.354201E-05
       172 -3.202930E-02 -1.735766E-02  7.678303E-04
       173 -3.807232E-02 -1.457971E-03 -8.607840E-05
       174 -4.452278E-02  1.987059E-02 -9.187696E-04
       175 -4.356910E-02 -1.908463E-03 -9.834601E-05
       176 -4.261445E-02 -2.369852E-02  7.220776E-04
       177 -4.906061E-02 -2.419140E-03 -1.106136E-04
       178 -5.604806E-02  2.427740E-02 -9.645223E-04
       179 -5.455004E-02 -2.990773E-03 -1.231500E-04
       180 -5.305783E-02 -3.027182E-02  7.184125E-04
       181 -6.001941E-02 -3.621951E-03 -1.354221E-04
       182 -6.761013E-02  2.842158E-02 -9.204743E-04
       183 -6.546076E-02 -4.310509E-03 -1.472294E-04
       184 -6.329828E-02 -3.705061E-02  6.258784E-04
       185 -7.096926E-02 -5.068555E-03 -1.594550E-04
       186 -7.949055E-02  3.235843E-02 -1.213329E-03
       187 -7.651821E-02 -5.893704E-03 -1.746080E-04
       188 -7.359794E-02 -4.416831E-02  8.652430E-04
       189 -8.180935E-02 -6.745675E-03 -1.861704E-04
       190  3.310473E-05 -5.069775E-03 -1.052103E-05
       191 -5.090890E-03 -1.045595E-02 -1.061935E-03
       192  1.126975E-04 -1.042847E-02 -2.208412E-05
       193  5.329378E-03 -1.034581E-02  1.016637E-03
       194  2.634650E-04 -1.603641E-02 -3.723700E-05
       195 -1.031231E-02 -2.183494E-02 -8.225705E-04
       196  4.732925E-04 -2.159286E-02 -4.946266E-05
       197  1.126907E-02 -2.136230E-02  7.237823E-04
       198  7.398967E-04 -2.707112E-02 -6.126990E-05
       199 -1.521025E-02 -3.309678E-02 -9.151045E-04
       200  1.067872E-03 -3.256701E-02 -7.354201E-05
       201  1.735766E-02 -3.202930E-02  7.678303E-04
       202  1.457971E-03 -3.807232E-02 -8.607840E-05
       203 -1.987059E-02 -4.452278E-02 -9.187696E-04
       204  1.908463E-03 -4.356910E-02 -9.834601E-05
       205  2.369852E-02 -4.261445E-02  7.220776E-04
       206  2.419140E-03 -4.906061E-02 -1.106136E-04
       207 -2.427740E-02 -5.604806E-02 -9.645223E-04
       208  2.990773E-03 -5.455004E-02 -1.231500E-04
       209  3.027182E-02 -5.305783E-02  7.184125E-04
       210  3.621951E-03 -6.001941E-02 -1.354221E-04
       211 -2.842158E-02 -6.761013E-02 -9.204743E-04
       212  4.310509E-03 -6.546076E-02 -1.472294E-04
       213  3.705061E-02 -6.329828E-02  6.258784E-04
       214  5.068555E-03 -7.096926E-02 -1.594550E-04
       215 -3.235843E-02 -7.949055E-02 -1.213329E-03
       216  5.893704E-03 -7.651821E-02 -1.746080E-04
       217  4.416831E-02 -7.359794E-02  8.652430E-04
       218  6.745675E-03 -8.180935E-02 -1.861704E-04
       219 -2.793054E-18 -2.966789E-18 -1.543489E-05
       220  5.216772E-03  5.797601E-05 -2.277010E-05
       221  5.797601E-05 -5.216772E-03 -2.277010E-05
       222 -6.533642E-18 -1.678483E-17 -2.331308E-05
       223 -5.797601E-05  5.216772E-03 -2.277010E-05
       224 -5.216772E-03 -5.797601E-05 -2.277010E-05
       225 -7.542260E-18 -3.974056E-17 -3.647028E-05
       226  1.079503E-02  2.375484E-04 -4.919781E-05
       227  2.375484E-04 -1.079503E-02 -4.919781E-05
       228 -4.077967E-18 -7.406299E-17 -4.887892E-05
       229 -2.375484E-04  1.079503E-02 -4.919781E-05
       230 -1.079503E-02 -2.375484E-04 -4.919781E-05
       231  1.630062E-18 -1.147299E-16 -6.145215E-05
       232  1.628393E-02  5.351263E-04 -7.360694E-05
       233  5.351263E-04 -1.628393E-02 -7.360694E-05
       234  5.243725E-18 -1.698827E-16 -7.369532E-05
       235 -5.351263E-04  1.628393E-02 -7.360694E-05
       236 -1.628393E-02 -5.351263E-04 -7.360694E-05
       237  2.807436E-17 -2.401375E-16 -8.604638E-05
       238  2.178445E-02  9.553236E-04 -9.834600E-05
       239  9.553236E-04 -2.178445E-02 -9.834600E-05
       240  4.387577E-17 -3.242518E-16 -9.834601E-05
       241 -9.553236E-04  2.178445E-02 -9.834600E-05
       242 -2.178445E-02 -9.553236E-04 -9.834600E-05
       243  8.177746E-17 -4.035777E-16 -1.106456E-04
       244  2.727439E-02  1.496484E-03 -1.230851E-04
       245  1.496484E-03 -2.727439E-02 -1.230851E-04
       246  1.349907E-16 -5.169665E-16 -1.229967E-04
       247 -1.496484E-03  2.727439E-02 -1.230851E-04
       248 -2.727439E-02 -1.496484E-03 -1.230851E-04
       249  1.973384E-16 -6.259124E-16 -1.352399E-04
       250  3.273161E-02  2.156386E-03 -1.474942E-04
       251  2.156386E-03 -3.273161E-02 -1.474942E-04
       252  2.813260E-16 -7.584045E-16 -1.478132E-04
       253 -2.156386E-03  3.273161E-02 -1.474942E-04
       254 -3.273161E-02 -2.156386E-03 -1.474942E-04
       255  3.868902E-16 -8.803652E-16 -1.602215E-04
       256  3.825632E-02  2.948014E-03 -1.739220E-04
       257  2.948014E-03 -3.825632E-02 -1.739220E-04
       258  4.970127E-16 -1.023093E-15 -1.733789E-04
       259 -2.948014E-03  3.825632E-02 -1.739220E-04
       260 -3.825632E-02 -2.948014E-03 -1.739220E-04
       261  6.347175E-16 -1.183023E-15 -1.812577E-04
       262  3.717414E-16  2.535461E-16  1.745000E-01
       263  7.915168E-16 -1.365631E-15 -1.966892E-04

 forces (fx,fy,fz) for set NALL and time  0.1000000E+01

         1  4.570997E+00 -4.738807E+00 -2.366492E-01
         2  4.738807E+00  4.570997E+00 -2.366492E-01
         3 -4.570997E+00  4.738807E+00 -2.366492E-01
         4 -4.738807E+00 -4.570997E+00 -2.366492E-01
         5 -5.460438E+00  3.678874E+00  2.366469E-01
         6 -3.678874E+00 -5.460438E+00  2.366469E-01
         7  5.460438E+00 -3.678874E+00  2.366469E-01
         8  3.678874E+00  5.460438E+00  2.366469E-01
         9 -3.889181E+01  3.152884E+01  3.715615E+01
        10  7.260231E+00  6.921293E-02 -2.728288E-01
        11 -3.923629E+01 -3.240164E+01 -3.739693E+01
        12 -3.152884E+01 -3.889181E+01  3.715615E+01
        13 -6.921293E-02  7.260231E+00 -2.728288E-01
        14  3.240164E+01 -3.923629E+01 -3.739693E+01
        15  3.889181E+01 -3.152884E+01  3.715615E+01
        16 -7.260231E+00 -6.921293E-02 -2.728288E-01
        17  3.923629E+01  3.240164E+01 -3.739693E+01
        18  3.152884E+01  3.889181E+01  3.715615E+01
        19  6.921293E-02 -7.260231E+00 -2.728288E-01
        20 -3.240164E+01  3.923629E+01 -3.739693E+01
        21  4.426585E+01 -2.509759E+01  3.739700E+01
        22 -7.162012E+00 -1.192320E+00  2.728768E-01
        23  3.282732E+01  3.780222E+01 -3.715606E+01
        24  2.509759E+01  4.426585E+01  3.739700E+01
        25  1.192320E+00 -7.162012E+00  2.728768E-01
        26 -3.780222E+01  3.282732E+01 -3.715606E+01
        27 -4.426585E+01  2.509759E+01  3.739700E+01
        28  7.162012E+00  1.192320E+00  2.728768E-01
        29 -3.282732E+01 -3.780222E+01 -3.715606E+01
        30 -2.509759E+01 -4.426585E+01  3.739700E+01
        31 -1.192320E+00  7.162012E+00  2.728768E-01
        32  3.780222E+01 -3.282732E+01 -3.715606E+01
        33  2.606587E-07 -2.563737E-07 -4.325914E-08
        34 -5.456830E-07  5.171320E-07  3.971989E-07
        35  1.758674E-06 -1.656095E-06 -1.065106E-07
        36 -1.673197E-06  1.532789E-06  7.938731E-07
        37  4.819928E-06 -4.359258E-06 -1.794967E-07
        38 -3.595150E-06  3.176227E-06  1.183222E-06
        39  9.489795E-06 -8.271283E-06 -2.524700E-07
        40 -6.091055E-06  5.212406E-06  1.428009E-06
        41  1.536094E-05 -1.290812E-05 -2.485521E-07
        42 -8.319577E-06  7.186644E-06  1.225173E-06
        43  1.992520E-05 -1.704882E-05 -2.904751E-07
        44 -6.939691E-06  7.805655E-06  1.669218E-06
        45  1.984174E-05 -2.135400E-05 -2.368589E-06
        46 -7.534695E-06 -1.249343E-05  2.730559E-05
        47  4.349043E-05  1.361766E-06  1.168235E-05
        48  1.361766E-06 -4.349043E-05  1.168235E-05
        49 -1.249343E-05  7.534690E-06  2.730559E-05
        50 -2.135400E-05 -1.984174E-05 -2.368590E-06
        51  7.805652E-06  6.939690E-06  1.669219E-06
        52 -1.704882E-05 -1.992520E-05 -2.904747E-07
        53  7.186644E-06  8.319577E-06  1.225172E-06
        54 -1.290812E-05 -1.536094E-05 -2.485528E-07
        55  5.212407E-06  6.091055E-06  1.428010E-06
        56 -8.271284E-06 -9.489796E-06 -2.524703E-07
        57  3.176225E-06  3.595148E-06  1.183222E-06
        58 -4.359258E-06 -4.819928E-06 -1.794967E-07
        59  1.532788E-06  1.673196E-06  7.938730E-07
        60 -1.656095E-06 -1.758674E-06 -1.065107E-07
        61  5.171316E-07  5.456831E-07  3.971988E-07
        62 -2.563737E-07 -2.606587E-07 -4.325912E-08
        63  2.563738E-07  2.606587E-07 -4.325920E-08
        64 -5.171316E-07 -5.456827E-07  3.971986E-07
        65  1.656095E-06  1.758674E-06 -1.065106E-07
        66 -1.532789E-06 -1.673197E-06  7.938731E-07
        67  4.359257E-06  4.819928E-06 -1.794970E-07
        68 -3.176227E-06 -3.595151E-06  1.183222E-06
        69  8.271283E-06  9.489795E-06 -2.524700E-07
        70 -5.212407E-06 -6.091056E-06  1.428009E-06
        71  1.290812E-05  1.536094E-05 -2.485522E-07
        72 -7.186644E-06 -8.319577E-06  1.225172E-06
        73  1.704882E-05  1.992520E-05 -2.904738E-07
        74 -7.805656E-06 -6.939695E-06  1.669218E-06
        75  2.135400E-05  1.984174E-05 -2.368591E-06
        76  1.249343E-05 -7.534696E-06  2.730559E-05
        77 -1.361768E-06  4.349043E-05  1.168235E-05
        78 -2.606586E-07  2.563738E-07 -4.325920E-08
        79  5.456828E-07 -5.171317E-07  3.971988E-07
        80 -1.758674E-06  1.656095E-06 -1.065107E-07
        81  1.673196E-06 -1.532789E-06  7.938732E-07
        82 -4.819928E-06  4.359258E-06 -1.794968E-07
        83  3.595149E-06 -3.176227E-06  1.183222E-06
        84 -9.489796E-06  8.271284E-06 -2.524705E-07
        85  6.091056E-06 -5.212406E-06  1.428010E-06
        86 -1.536094E-05  1.290812E-05 -2.485528E-07
        87  8.319576E-06 -7.186645E-06  1.225172E-06
        88 -1.992520E-05  1.704881E-05 -2.904748E-07
        89  6.939692E-06 -7.805652E-06  1.669217E-06
        90 -1.984174E-05  2.135400E-05 -2.368589E-06
        91  7.534696E-06  1.249343E-05  2.730559E-05
        92 -4.349044E-05 -1.361765E-06  1.168235E-05
        93 -6.532765E+01 -6.336969E-02  7.135846E-01
        94 -6.336969E-02  6.532765E+01  7.135846E-01
        95 -1.212588E-14  2.272007E-13  1.466968E-01
        96  6.336969E-02 -6.532765E+01  7.135846E-01
        97  6.532765E+01  6.336969E-02  7.135846E-01
        98  6.434657E+01  1.127945E+01 -7.135243E-01
        99  1.127945E+01 -6.434657E+01 -7.135243E-01
       100  2.292654E-12 -6.919993E-13 -1.465066E-01
       101 -1.127945E+01  6.434657E+01 -7.135243E-01
       102 -6.434657E+01 -1.127945E+01 -7.135243E-01
       103  3.428830E-09 -5.357873E-07 -2.130322E-07
       104  1.224541E-07 -1.736584E-06 -4.442776E-07
       105 -2.942802E-08  1.111488E-06  9.331844E-07
       106 -4.238497E-08 -1.751492E-06 -4.325362E-07
       107  9.555293E-08 -3.400957E-06 -6.512532E-07
       108  3.375307E-07 -6.068148E-06 -8.815280E-07
       109 -1.422417E-07  3.259833E-06  1.879502E-06
       110  1.710057E-07 -6.103129E-06 -8.487226E-07
       111  4.481121E-07 -9.178662E-06 -1.081392E-06
       112  9.102604E-07 -1.324750E-05 -1.332333E-06
       113 -4.308167E-07  6.835334E-06  2.791952E-06
       114  7.091884E-07 -1.328714E-05 -1.253275E-06
       115  1.227083E-06 -1.774696E-05 -1.485775E-06
       116  1.982538E-06 -2.289853E-05 -1.613423E-06
       117 -8.794343E-07  1.143289E-05  3.326028E-06
       118  1.623378E-06 -2.301378E-05 -1.524666E-06
       119  2.349657E-06 -2.808430E-05 -1.505153E-06
       120  3.575982E-06 -3.277119E-05 -1.437519E-06
       121 -1.326258E-06  1.588606E-05  2.832963E-06
       122  2.359498E-06 -3.277963E-05 -1.279348E-06
       123  3.374778E-06 -3.676836E-05 -9.960194E-07
       124  5.137911E-06 -3.864013E-05 -1.922711E-06
       125  1.557910E-06  1.558343E-05  1.487857E-06
       126 -4.460778E-07 -3.866369E-05 -1.661163E-06
       127 -2.680906E-06 -3.579287E-05 -7.193871E-07
       128  1.597006E-05 -3.788504E-05 -4.996781E-05
       129 -2.241344E-05  3.745166E-06  9.827859E-05
       130 -2.932344E-06 -4.088495E-05 -3.730578E-05
       131  4.326917E-05 -2.197701E-05 -1.353811E-04
       132  5.357874E-07  3.428857E-09 -2.130323E-07
       133  1.736584E-06  1.224530E-07 -4.442776E-07
       134 -1.111488E-06 -2.942743E-08  9.331842E-07
       135  1.751492E-06 -4.238530E-08 -4.325360E-07
       136  3.400957E-06  9.555346E-08 -6.512528E-07
       137  6.068149E-06  3.375286E-07 -8.815277E-07
       138 -3.259833E-06 -1.422406E-07  1.879502E-06
       139  6.103129E-06  1.710053E-07 -8.487227E-07
       140  9.178662E-06  4.481118E-07 -1.081392E-06
       141  1.324750E-05  9.102570E-07 -1.332332E-06
       142 -6.835334E-06 -4.308164E-07  2.791951E-06
       143  1.328714E-05  7.091900E-07 -1.253275E-06
       144  1.774696E-05  1.227082E-06 -1.485775E-06
       145  2.289853E-05  1.982538E-06 -1.613422E-06
       146 -1.143289E-05 -8.794338E-07  3.326028E-06
       147  2.301378E-05  1.623379E-06 -1.524666E-06
       148  2.808430E-05  2.349654E-06 -1.505152E-06
       149  3.277119E-05  3.575983E-06 -1.437521E-06
       150 -1.588606E-05 -1.326258E-06  2.832963E-06
       151  3.277964E-05  2.359497E-06 -1.279347E-06
       152  3.676836E-05  3.374778E-06 -9.960203E-07
       153  3.864013E-05  5.137907E-06 -1.922711E-06
       154 -1.558343E-05  1.557911E-06  1.487858E-06
       155  3.866368E-05 -4.460748E-07 -1.661164E-06
       156  3.579287E-05 -2.680907E-06 -7.193885E-07
       157  3.788504E-05  1.597005E-05 -4.996781E-05
       158 -3.745163E-06 -2.241344E-05  9.827859E-05
       159  4.088495E-05 -2.932339E-06 -3.730578E-05
       160  2.197701E-05  4.326917E-05 -1.353811E-04
       161 -3.428948E-09  5.357875E-07 -2.130323E-07
       162 -1.224539E-07  1.736584E-06 -4.442775E-07
       163  2.942790E-08 -1.111488E-06  9.331843E-07
       164  4.238545E-08  1.751492E-06 -4.325360E-07
       165 -9.555345E-08  3.400957E-06 -6.512532E-07
       166 -3.375280E-07  6.068149E-06 -8.815277E-07
       167  1.422399E-07 -3.259833E-06  1.879502E-06
       168 -1.710042E-07  6.103130E-06 -8.487224E-07
       169 -4.481116E-07  9.178662E-06 -1.081392E-06
       170 -9.102552E-07  1.324750E-05 -1.332333E-06
       171  4.308120E-07 -6.835337E-06  2.791952E-06
       172 -7.091852E-07  1.328714E-05 -1.253275E-06
       173 -1.227081E-06  1.774696E-05 -1.485776E-06
       174 -1.982537E-06  2.289853E-05 -1.613423E-06
       175  8.794345E-07 -1.143289E-05  3.326029E-06
       176 -1.623379E-06  2.301378E-05 -1.524665E-06
       177 -2.349656E-06  2.808430E-05 -1.505153E-06
       178 -3.575982E-06  3.277119E-05 -1.437521E-06
       179  1.326257E-06 -1.588606E-05  2.832962E-06
       180 -2.359495E-06  3.277964E-05 -1.279348E-06
       181 -3.374778E-06  3.676836E-05 -9.960195E-07
       182 -5.137905E-06  3.864013E-05 -1.922710E-06
       183 -1.557910E-06 -1.558343E-05  1.487857E-06
       184  4.460784E-07  3.866368E-05 -1.661164E-06
       185  2.680909E-06  3.579287E-05 -7.193872E-07
       186 -1.597006E-05  3.788505E-05 -4.996781E-05
       187  2.241344E-05 -3.745166E-06  9.827859E-05
       188  2.932343E-06  4.088495E-05 -3.730578E-05
       189 -4.326917E-05  2.197701E-05 -1.353811E-04
       190 -5.357875E-07 -3.428917E-09 -2.130323E-07
       191 -1.736584E-06 -1.224538E-07 -4.442776E-07
       192  1.111488E-06  2.942817E-08  9.331843E-07
       193 -1.751492E-06  4.238471E-08 -4.325361E-07
       194 -3.400957E-06 -9.555343E-08 -6.512528E-07
       195 -6.068149E-06 -3.375296E-07 -8.815279E-07
       196  3.259833E-06  1.422399E-07  1.879502E-06
       197 -6.103129E-06 -1.710034E-07 -8.487224E-07
       198 -9.178662E-06 -4.481123E-07 -1.081392E-06
       199 -1.324750E-05 -9.102575E-07 -1.332333E-06
       200  6.835335E-06  4.308129E-07  2.791952E-06
       201 -1.328714E-05 -7.091850E-07 -1.253275E-06
       202 -1.774696E-05 -1.227082E-06 -1.485775E-06
       203 -2.289853E-05 -1.982539E-06 -1.613422E-06
       204  1.143289E-05  8.794340E-07  3.326028E-06
       205 -2.301379E-05 -1.623378E-06 -1.524665E-06
       206 -2.808430E-05 -2.349654E-06 -1.505153E-06
       207 -3.277119E-05 -3.575979E-06 -1.437520E-06
       208  1.588606E-05  1.326256E-06  2.832962E-06
       209 -3.277964E-05 -2.359497E-06 -1.279347E-06
       210 -3.676836E-05 -3.374777E-06 -9.960191E-07
       211 -3.864013E-05 -5.137912E-06 -1.922711E-06
       212  1.558343E-05 -1.557910E-06  1.487857E-06
       213 -3.866368E-05  4.460816E-07 -1.661164E-06
       214 -3.579287E-05  2.680911E-06 -7.193875E-07
       215 -3.788505E-05 -1.597005E-05 -4.996781E-05
       216  3.745167E-06  2.241343E-05  9.827859E-05
       217 -4.088495E-05  2.932351E-06 -3.730578E-05
       218 -2.197701E-05 -4.326917E-05 -1.353811E-04
       219 -5.898602E-16 -1.695169E-13 -6.721244E-07
       220 -1.713026E-08  5.540847E-08 -1.437926E-06
       221  5.540930E-08  1.712963E-08 -1.437926E-06
       222  3.420163E-13  4.204237E-13  2.154664E-06
       223 -5.540923E-08 -1.713020E-08 -1.437926E-06
       224  1.712981E-08 -5.540915E-08 -1.437926E-06
       225 -3.379775E-13 -2.918160E-13 -2.181183E-06
       226 -3.742568E-08  6.771212E-08 -2.891233E-06
       227  6.771170E-08  3.742618E-08 -2.891233E-06
       228  6.940065E-14 -5.429741E-13  4.337051E-06
       229 -6.771209E-08 -3.742543E-08 -2.891233E-06
       230  3.742562E-08 -6.771208E-08 -2.891233E-06
       231 -5.738569E-13  5.624932E-13 -3.607599E-06
       232 -4.444475E-08  7.004566E-08 -4.300286E-06
       233  7.004567E-08  4.444461E-08 -4.300286E-06
       234 -1.052109E-12 -1.908839E-12  6.434484E-06
       235 -7.004481E-08 -4.444398E-08 -4.300286E-06
       236  4.444502E-08 -7.004230E-08 -4.300286E-06
       237  9.517961E-13 -5.879777E-14 -4.954296E-06
       238 -1.059295E-07  1.816684E-07 -5.201776E-06
       239  1.816677E-07  1.059331E-07 -5.201776E-06
       240 -1.697410E-12 -1.039231E-12  7.633967E-06
       241 -1.816670E-07 -1.059324E-07 -5.201776E-06
       242  1.059324E-07 -1.816677E-07 -5.201776E-06
       243  3.103539E-13 -3.614691E-13 -5.071769E-06
       244  4.719387E-09  4.957991E-07 -4.345207E-06
       245  4.957985E-07 -4.717061E-09 -4.345206E-06
       246  4.338587E-13 -3.678732E-13  6.348572E-06
       247 -4.957960E-07  4.714085E-09 -4.345207E-06
       248 -4.720035E-09 -4.957959E-07 -4.345207E-06
       249 -1.089691E-12 -1.281158E-13 -3.170036E-06
       250 -9.284584E-07  4.239376E-06 -7.760645E-07
       251  4.239378E-06  9.284558E-07 -7.760651E-07
       252  5.626908E-13 -5.844722E-13 -9.076360E-07
       253 -4.239376E-06 -9.284516E-07 -7.760652E-07
       254  9.284528E-07 -4.239379E-06 -7.760636E-07
       255 -9.612222E-13  7.268819E-13  1.092050E-05
       256  2.810177E-07  2.405458E-05 -1.482173E-04
       257  2.405458E-05 -2.810160E-07 -1.482173E-04
       258  3.185137E-13  9.526004E-13  3.166057E-04
       259 -2.405459E-05  2.810143E-07 -1.482173E-04
       260 -2.810182E-07 -2.405458E-05 -1.482173E-04
       261  1.083301E-12 -1.805578E-12 -5.496635E-04
       262  8.917866E-14  7.708313E-13  2.523742E+02
       263  4.263256E-14 -1.172396E-13  1.245709E-03

 stresses (elem, integ.pnt.,sxx,syy,szz,sxy,sxz,syz) for set EALL and time  0.1000000E+01

         1   1  4.781966E+01 -3.137613E+01  5.635728E+00 -7.006783E+00  5.300663E+02 -5.229370E+02
         1   2  2.546818E+01 -3.684343E+01 -8.799140E+01 -1.589404E+01  6.764637E+02 -1.203932E+02
         1   3  3.327483E+01 -8.192536E+00  9.095340E+01  1.136647E+01  1.280896E+02 -6.760740E+02
         1   4  4.470928E+00 -1.705101E+01 -9.179450E+00 -6.340101E-01  1.647866E+02 -1.633599E+02
         1   5  4.408534E+01 -3.744512E+01  2.779793E+00 -4.380818E+00  3.868234E+02 -3.757459E+02
         1   6  3.913385E+01 -3.393133E+01 -8.018376E+01 -1.375673E+01  8.449316E+02 -2.521720E+01
         1   7  2.303541E+01 -2.014722E+01  8.714418E+01  9.780768E+00  5.090744E+01 -8.450729E+02
         1   8  7.033721E-01 -2.236161E+01 -9.849661E+00 -6.489659E-01  1.641771E+02 -1.598022E+02
         2   1 -8.192536E+00  3.327483E+01  9.095340E+01 -1.136647E+01  6.760740E+02  1.280896E+02
         2   2 -3.137613E+01  4.781966E+01  5.635728E+00  7.006783E+00  5.229370E+02  5.300663E+02
         2   3 -1.705101E+01  4.470928E+00 -9.179450E+00  6.340101E-01  1.633599E+02  1.647866E+02
         2   4 -3.684343E+01  2.546818E+01 -8.799140E+01  1.589404E+01  1.203932E+02  6.764637E+02
         2   5 -2.014722E+01  2.303541E+01  8.714418E+01 -9.780768E+00  8.450729E+02  5.090744E+01
         2   6 -3.744512E+01  4.408534E+01  2.779793E+00  4.380818E+00  3.757459E+02  3.868234E+02
         2   7 -2.236161E+01  7.033721E-01 -9.849661E+00  6.489659E-01  1.598022E+02  1.641771E+02
         2   8 -3.393133E+01  3.913385E+01 -8.018376E+01  1.375673E+01  2.521720E+01  8.449316E+02
         3   1 -3.684343E+01  2.546818E+01 -8.799140E+01  1.589404E+01 -1.203932E+02 -6.764637E+02
         3   2 -1.705101E+01  4.470928E+00 -9.179450E+00  6.340101E-01 -1.633599E+02 -1.647866E+02
         3   3 -3.137613E+01  4.781966E+01  5.635728E+00  7.006783E+00 -5.229370E+02 -5.300663E+02