
 displacements (vx,vy,vz) for set NALL and time  0.1000000E+01

         1  0.000000E+00  0.000000E+00  0.000000E+00
         2  5.086431E-09  0.000000E+00  0.000000E+00
         3  5.086432E-09  5.086433E-09  0.000000E+00
         4  7.158326E-16  5.086433E-09  0.000000E+00
         5  3.468158E-09  3.468149E-09  2.231921E-01
         6  1.618288E-09  3.468150E-09  2.231921E-01
         7  1.618289E-09  1.618278E-09  2.231921E-01
         8  3.468162E-09  1.618274E-09  2.231921E-01
         9  1.271578E-09 -3.343400E-14  0.000000E+00
        10  2.543217E-09 -1.335585E-13  0.000000E+00
        11  3.814854E-09 -3.296555E-14  0.000000E+00
        12  5.086465E-09  1.271578E-09  0.000000E+00
        13  5.086566E-09  2.543216E-09  0.000000E+00
        14  5.086465E-09  3.814855E-09  0.000000E+00
        15  3.814854E-09  5.086466E-09  0.000000E+00
        16  2.543216E-09  5.086566E-09  0.000000E+00
        17  1.271578E-09  5.086465E-09  0.000000E+00
        18 -3.322990E-14  3.814855E-09  0.000000E+00
        19 -1.339297E-13  2.543216E-09  0.000000E+00
        20 -3.367418E-14  1.271578E-09  0.000000E+00
        21  3.013079E-09  4.304301E-09  2.231921E-01
        22  2.543224E-09  5.094080E-09  2.231921E-01
        23  2.073369E-09  4.304302E-09  2.231921E-01
        24  7.821374E-10  3.013070E-09  2.231921E-01
        25 -7.642834E-12  2.543215E-09  2.231921E-01
        26  7.821356E-10  2.073359E-09  2.231921E-01
        27  2.073368E-09  7.821273E-10  2.231921E-01
        28  2.543222E-09 -7.651558E-12  2.231921E-01
        29  3.013078E-09  7.821239E-10  2.231921E-01
        30  4.304310E-09  2.073358E-09  2.231921E-01
        31  5.094088E-09  2.543212E-09  2.231921E-01
        32  4.304310E-09  3.013069E-09  2.231921E-01
        33  5.086441E-09 -9.289523E-15  1.394950E-02
        34  5.086716E-09 -2.841458E-13  2.789901E-02
        35  5.086913E-09 -4.797631E-13  4.184851E-02
        36  5.086784E-09 -3.527706E-13  5.579801E-02
        37  5.084409E-09  2.021303E-12  6.974752E-02
        38  5.091911E-09 -5.478479E-12  8.369702E-02
        39  5.088962E-09 -2.533064E-12  9.764652E-02
        40  5.100634E-09 -1.420703E-11  1.115960E-01
        41  5.051964E-09  3.446492E-11  1.255455E-01
        42  5.178134E-09 -9.170228E-11  1.394950E-01
        43  5.091355E-09 -4.920328E-12  1.534445E-01
        44  5.270052E-09 -1.836113E-10  1.673940E-01
        45  4.636694E-09  4.497500E-10  1.813435E-01
        46  5.446460E-09 -3.600202E-10  1.952930E-01
        47  6.105058E-09 -1.018621E-09  2.092426E-01
        48 -1.018607E-09 -1.018623E-09  2.092426E-01
        49 -3.600044E-10 -3.600223E-10  1.952930E-01
        50  4.497633E-10  4.497457E-10  1.813435E-01
        51 -1.835955E-10 -1.836144E-10  1.673940E-01
        52 -4.900186E-12 -4.922523E-12  1.534445E-01
        53 -9.168179E-11 -9.170468E-11  1.394950E-01
        54  3.448305E-11  3.446367E-11  1.255455E-01
        55 -1.418917E-11 -1.420720E-11  1.115960E-01
        56 -2.518081E-12 -2.533677E-12  9.764652E-02
        57 -5.465367E-12 -5.479980E-12  8.369702E-02
        58  2.036198E-12  2.018841E-12  6.974752E-02
        59 -3.422583E-13 -3.543685E-13  5.579801E-02
        60 -4.757192E-13 -4.801702E-13  4.184851E-02
        61 -2.827886E-13 -2.833868E-13  2.789901E-02
        62 -9.453981E-15 -8.073149E-15  1.394950E-02
        63  5.086440E-09  5.086441E-09  1.394950E-02
        64  5.086716E-09  5.086714E-09  2.789901E-02
        65  5.086911E-09  5.086906E-09  4.184851E-02
        66  5.086784E-09  5.086775E-09  5.579801E-02
        67  5.084409E-09  5.084396E-09  6.974752E-02
        68  5.091911E-09  5.091894E-09  8.369702E-02
        69  5.088962E-09  5.088948E-09  9.764652E-02
        70  5.100633E-09  5.100620E-09  1.115960E-01
        71  5.051965E-09  5.051947E-09  1.255455E-01
        72  5.178135E-09  5.178115E-09  1.394950E-01
        73  5.091355E-09  5.091336E-09  1.534445E-01
        74  5.270049E-09  5.270032E-09  1.673940E-01
        75  4.636692E-09  4.636675E-09  1.813435E-01
        76  5.446458E-09  5.446445E-09  1.952930E-01
        77  6.105059E-09  6.105046E-09  2.092426E-01
        78 -7.872550E-15  5.086440E-09  1.394950E-02
        79 -2.813629E-13  5.086713E-09  2.789901E-02
        80 -4.748278E-13  5.086907E-09  4.184851E-02
        81 -3.428558E-13  5.086775E-09  5.579801E-02
        82  2.034178E-12  5.084397E-09  6.974752E-02
        83 -5.466107E-12  5.091895E-09  8.369702E-02
        84 -2.518796E-12  5.088946E-09  9.764652E-02
        85 -1.419153E-11  5.100617E-09  1.115960E-01
        86  3.448052E-11  5.051945E-09  1.255455E-01
        87 -9.168602E-11  5.178116E-09  1.394950E-01
        88 -4.903164E-12  5.091337E-09  1.534445E-01
        89 -1.835959E-10  5.270032E-09  1.673940E-01
        90  4.497626E-10  4.636674E-09  1.813435E-01
        91 -3.600048E-10  5.446444E-09  1.952930E-01
        92 -1.018607E-09  6.105048E-09  2.092426E-01
        93  2.543216E-09  1.271610E-09  0.000000E+00
        94  1.271610E-09  2.543216E-09  0.000000E+00
        95  2.543216E-09  2.543216E-09  0.000000E+00
        96  3.814823E-09  2.543216E-09  0.000000E+00
        97  2.543216E-09  3.814823E-09  0.000000E+00
        98  2.543223E-09  4.020311E-09  2.231920E-01
        99  4.020320E-09  2.543213E-09  2.231920E-01
       100  2.543222E-09  2.543214E-09  2.231920E-01
       101  1.066126E-09  2.543214E-09  2.231920E-01
       102  2.543223E-09  1.066117E-09  2.231920E-01
       103  2.543216E-09  4.956437E-14  1.394950E-02
       104  1.271520E-09 -1.924369E-13  2.789901E-02
       105  2.543217E-09  2.818735E-14  2.789901E-02
       106  3.814914E-09 -1.923117E-13  2.789901E-02
       107  2.543218E-09 -7.108245E-13  4.184851E-02
       108  1.271275E-09  2.260640E-13  5.579801E-02
       109  2.543220E-09  4.426709E-13  5.579801E-02
       110  3.815167E-09  2.257891E-13  5.579801E-02
       111  2.543221E-09  1.343548E-12  6.974752E-02
       112  1.269349E-09 -1.201543E-12  8.369702E-02
       113  2.543224E-09  4.334059E-12  8.369702E-02
       114  3.817097E-09 -1.199846E-12  8.369702E-02
       115  2.543224E-09 -9.587278E-12  9.764652E-02
       116  1.263167E-09  3.179523E-12  1.115960E-01
       117  2.543222E-09  1.715616E-11  1.115960E-01
       118  3.823278E-09  3.179760E-12  1.115960E-01
       119  2.543224E-09  7.208676E-12  1.255455E-01
       120  1.229048E-09 -1.393755E-11  1.394950E-01
       121  2.543224E-09  7.444530E-11  1.394950E-01
       122  3.857403E-09 -1.393719E-11  1.394950E-01
       123  2.543227E-09 -1.204485E-10  1.534445E-01
       124  1.178054E-09  5.703920E-11  1.673940E-01
       125  2.543228E-09  2.726521E-10  1.673940E-01
       126  3.908403E-09  5.704028E-11  1.673940E-01
       127  2.543229E-09  2.648694E-11  1.813435E-01
       128  1.087413E-09  3.559341E-10  1.952930E-01
       129  2.543229E-09  1.111924E-09  1.952930E-01
       130  3.999044E-09  3.559354E-10  1.952930E-01
       131  2.543226E-09 -1.919444E-09  2.092425E-01
       132  5.086382E-09  2.543217E-09  1.394950E-02
       133  5.086624E-09  1.271518E-09  2.789901E-02
       134  5.086403E-09  2.543216E-09  2.789901E-02
       135  5.086623E-09  3.814912E-09  2.789901E-02
       136  5.087141E-09  2.543213E-09  4.184851E-02
       137  5.086203E-09  1.271263E-09  5.579801E-02
       138  5.085987E-09  2.543209E-09  5.579801E-02
       139  5.086204E-09  3.815157E-09  5.579801E-02
       140  5.085086E-09  2.543209E-09  6.974752E-02
       141  5.087630E-09  1.269334E-09  8.369702E-02
       142  5.082094E-09  2.543207E-09  8.369702E-02
       143  5.087630E-09  3.817079E-09  8.369702E-02
       144  5.096016E-09  2.543206E-09  9.764652E-02
       145  5.083249E-09  1.263149E-09  1.115960E-01
       146  5.069273E-09  2.543206E-09  1.115960E-01
       147  5.083249E-09  3.823264E-09  1.115960E-01
       148  5.079220E-09  2.543205E-09  1.255455E-01
       149  5.100369E-09  1.229029E-09  1.394950E-01
       150  5.011986E-09  2.543207E-09  1.394950E-01
       151  5.100368E-09  3.857384E-09  1.394950E-01
       152  5.206882E-09  2.543208E-09  1.534445E-01
       153  5.029397E-09  1.178038E-09  1.673940E-01
       154  4.813784E-09  2.543210E-09  1.673940E-01
       155  5.029396E-09  3.908384E-09  1.673940E-01
       156  5.059951E-09  2.543210E-09  1.813435E-01
       157  4.730503E-09  1.087397E-09  1.952930E-01
       158  3.974515E-09  2.543211E-09  1.952930E-01
       159  4.730504E-09  3.999028E-09  1.952930E-01
       160  7.005882E-09  2.543213E-09  2.092425E-01
       161  2.543215E-09  5.086382E-09  1.394950E-02
       162  3.814913E-09  5.086622E-09  2.789901E-02
       163  2.543216E-09  5.086401E-09  2.789901E-02
       164  1.271520E-09  5.086621E-09  2.789901E-02
       165  2.543218E-09  5.087134E-09  4.184851E-02
       166  3.815165E-09  5.086195E-09  5.579801E-02
       167  2.543218E-09  5.085977E-09  5.579801E-02
       168  1.271274E-09  5.086194E-09  5.579801E-02
       169  2.543221E-09  5.085072E-09  6.974752E-02
       170  3.817096E-09  5.087614E-09  8.369702E-02
       171  2.543222E-09  5.082078E-09  8.369702E-02
       172  1.269349E-09  5.087614E-09  8.369702E-02
       173  2.543222E-09  5.095998E-09  9.764652E-02
       174  3.823278E-09  5.083232E-09  1.115960E-01
       175  2.543223E-09  5.069256E-09  1.115960E-01
       176  1.263165E-09  5.083232E-09  1.115960E-01
       177  2.543223E-09  5.079203E-09  1.255455E-01
       178  3.857403E-09  5.100350E-09  1.394950E-01
       179  2.543224E-09  5.011967E-09  1.394950E-01
       180  1.229046E-09  5.100350E-09  1.394950E-01
       181  2.543226E-09  5.206865E-09  1.534445E-01
       182  3.908401E-09  5.029379E-09  1.673940E-01
       183  2.543228E-09  4.813767E-09  1.673940E-01
       184  1.178053E-09  5.029379E-09  1.673940E-01
       185  2.543227E-09  5.059934E-09  1.813435E-01
       186  3.999043E-09  4.730489E-09  1.952930E-01
       187  2.543226E-09  3.974500E-09  1.952930E-01
       188  1.087412E-09  4.730488E-09  1.952930E-01
       189  2.543225E-09  7.005870E-09  2.092425E-01
       190  5.010737E-14  2.543216E-09  1.394950E-02
       191 -1.898220E-13  3.814911E-09  2.789901E-02
       192  3.070422E-14  2.543215E-09  2.789901E-02
       193 -1.896376E-13  1.271519E-09  2.789901E-02
       194 -7.046097E-13  2.543211E-09  4.184851E-02
       195  2.351382E-13  3.815157E-09  5.579801E-02
       196  4.523733E-13  2.543209E-09  5.579801E-02
       197  2.361049E-13  1.271263E-09  5.579801E-02
       198  1.356335E-12  2.543207E-09  6.974752E-02
       199 -1.186437E-12  3.817079E-09  8.369702E-02
       200  4.350069E-12  2.543206E-09  8.369702E-02
       201 -1.185249E-12  1.269333E-09  8.369702E-02
       202 -9.569644E-12  2.543205E-09  9.764652E-02
       203  3.196584E-12  3.823261E-09  1.115960E-01
       204  1.717351E-11  2.543205E-09  1.115960E-01
       205  3.197386E-12  1.263150E-09  1.115960E-01
       206  7.226369E-12  2.543205E-09  1.255455E-01
       207 -1.391997E-11  3.857384E-09  1.394950E-01
       208  7.446363E-11  2.543205E-09  1.394950E-01
       209 -1.391839E-11  1.229026E-09  1.394950E-01
       210 -1.204311E-10  2.543207E-09  1.534445E-01
       211  5.705765E-11  3.908383E-09  1.673940E-01
       212  2.726697E-10  2.543209E-09  1.673940E-01
       213  5.705736E-11  1.178035E-09  1.673940E-01
       214  2.650413E-11  2.543210E-09  1.813435E-01
       215  3.559501E-10  3.999027E-09  1.952930E-01
       216  1.111939E-09  2.543211E-09  1.952930E-01
       217  3.559503E-10  1.087395E-09  1.952930E-01
       218 -1.919432E-09  2.543211E-09  2.092425E-01
       219  2.543216E-09  2.543216E-09  1.394950E-02
       220  2.543217E-09  1.271497E-09  2.789901E-02
       221  1.271498E-09  2.543215E-09  2.789901E-02
       222  2.543217E-09  2.543215E-09  2.789901E-02
       223  3.814935E-09  2.543215E-09  2.789901E-02
       224  2.543217E-09  3.814933E-09  2.789901E-02
       225  2.543219E-09  2.543213E-09  4.184851E-02
       226  2.543220E-09  1.272231E-09  5.579801E-02
       227  1.272241E-09  2.543210E-09  5.579801E-02
       228  2.543220E-09  2.543210E-09  5.579801E-02
       229  3.814198E-09  2.543210E-09  5.579801E-02
       230  2.543219E-09  3.814188E-09  5.579801E-02
       231  2.543221E-09  2.543207E-09  6.974752E-02
       232  2.543223E-09  1.272445E-09  8.369702E-02
       233  1.272460E-09  2.543206E-09  8.369702E-02
       234  2.543222E-09  2.543206E-09  8.369702E-02
       235  3.813985E-09  2.543207E-09  8.369702E-02
       236  2.543222E-09  3.813969E-09  8.369702E-02
       237  2.543222E-09  2.543206E-09  9.764652E-02
       238  2.543222E-09  1.284617E-09  1.115960E-01
       239  1.284635E-09  2.543205E-09  1.115960E-01
       240  2.543222E-09  2.543206E-09  1.115960E-01
       241  3.801811E-09  2.543206E-09  1.115960E-01
       242  2.543222E-09  3.801794E-09  1.115960E-01
       243  2.543223E-09  2.543206E-09  1.255455E-01
       244  2.543225E-09  1.294638E-09  1.394950E-01
       245  1.294657E-09  2.543205E-09  1.394950E-01
       246  2.543225E-09  2.543206E-09  1.394950E-01
       247  3.791793E-09  2.543207E-09  1.394950E-01
       248  2.543225E-09  3.791774E-09  1.394950E-01
       249  2.543226E-09  2.543208E-09  1.534445E-01
       250  2.543228E-09  1.453695E-09  1.673940E-01
       251  1.453712E-09  2.543210E-09  1.673940E-01
       252  2.543227E-09  2.543210E-09  1.673940E-01
       253  3.632743E-09  2.543210E-09  1.673940E-01
       254  2.543227E-09  3.632725E-09  1.673940E-01
       255  2.543227E-09  2.543211E-09  1.813435E-01
       256  2.543228E-09  1.691737E-09  1.952930E-01
       257  1.691753E-09  2.543212E-09  1.952930E-01
       258  2.543227E-09  2.543212E-09  1.952930E-01
       259  3.394701E-09  2.543211E-09  1.952930E-01
       260  2.543226E-09  3.394686E-09  1.952930E-01
       261  2.543225E-09  2.543212E-09  2.092425E-01

 stresses (elem, integ.pnt.,sxx,syy,szz,sxy,sxz,syz) for set EALL and time  0.1000000E+01

         1   1  1.631795E-09  1.631795E-09  1.000030E-02  1.885679E-15  1.265372E-13  1.266895E-13
         1   2  1.631808E-09  1.631855E-09  1.000030E-02 -7.919768E-15 -5.730278E-14  6.716329E-14
         1   3  1.631855E-09  1.631808E-09  1.000030E-02 -7.832944E-15  6.738512E-14 -5.700825E-14
         1   4  1.631795E-09  1.631795E-09  1.000030E-02  5.327542E-15 -9.141558E-14 -9.135483E-14
         1   5  1.631910E-09  1.631910E-09  1.000030E-02 -2.179458E-15  2.518528E-13  2.515322E-13
         1   6  1.631885E-09  1.631731E-09  1.000030E-02  3.267279E-14 -3.620274E-13  2.784931E-13
         1   7  1.631730E-09  1.631884E-09  1.000030E-02  3.245936E-14  2.786087E-13 -3.620029E-13
         1   8  1.631909E-09  1.631909E-09  1.000030E-02 -1.120588E-14 -1.880871E-13 -1.881863E-13
         2   1  1.631807E-09  1.631854E-09  1.000030E-02  7.913458E-15  5.707357E-14  6.707428E-14
         2   2  1.631797E-09  1.631796E-09  1.000030E-02 -1.843500E-15 -1.263679E-13  1.264371E-13
         2   3  1.631796E-09  1.631795E-09  1.000030E-02 -5.458536E-15  9.126550E-14 -9.135313E-14
         2   4  1.631853E-09  1.631807E-09  1.000030E-02  7.927330E-15 -6.707846E-14 -5.695888E-14
         2   5  1.631886E-09  1.631732E-09  1.000030E-02 -3.288498E-14  3.622959E-13  2.784285E-13
         2   6  1.631910E-09  1.631910E-09  1.000030E-02  2.216704E-15 -2.518912E-13  2.516422E-13
         2   7  1.631913E-09  1.631913E-09  1.000030E-02  1.126465E-14  1.880150E-13 -1.883162E-13
         2   8  1.631731E-09  1.631885E-09  1.000030E-02 -3.270546E-14 -2.784289E-13 -3.621815E-13
         3   1  1.631853E-09  1.631806E-09  1.000030E-02  7.897200E-15  6.736686E-14  5.716258E-14
         3   2  1.631795E-09  1.631796E-09  1.000030E-02 -5.364571E-15 -9.139221E-14  9.149756E-14
         3   3  1.631794E-09  1.631794E-09  1.000030E-02 -1.923691E-15  1.269027E-13 -1.270274E-13
         3   4  1.631806E-09  1.631853E-09  1.000030E-02  7.963295E-15 -5.703460E-14 -6.716166E-14
         3   5  1.631730E-09  1.631884E-09  1.000030E-02 -3.281522E-14  2.782862E-13  3.623437E-13
         3   6  1.631911E-09  1.631911E-09  1.000030E-02  1.110881E-14 -1.883555E-13  1.880101E-13
         3   7  1.631909E-09  1.631909E-09  1.000030E-02  2.384416E-15  2.516918E-13 -2.518333E-13
         3   8  1.631884E-09  1.631730E-09  1.000030E-02 -3.276353E-14 -3.623079E-13 -2.781634E-13
         4   1  1.631795E-09  1.631795E-09  1.000030E-02  5.341128E-15  9.126285E-14  9.154720E-14
         4   2  1.631855E-09  1.631809E-09  1.000030E-02 -7.970069E-15 -6.716944E-14  5.728742E-14
         4   3  1.631806E-09  1.631853E-09  1.000030E-02 -7.892475E-15  5.680671E-14 -6.713486E-14
         4   4  1.631795E-09  1.631795E-09  1.000030E-02  1.760249E-15 -1.268227E-13 -1.268770E-13
         4   5  1.631910E-09  1.631910E-09  1.000030E-02 -1.109167E-14  1.881465E-13  1.879978E-13
         4   6  1.631731E-09  1.631884E-09  1.000030E-02  3.271568E-14 -2.782173E-13  3.621231E-13
         4   7  1.631885E-09  1.631731E-09  1.000030E-02  3.262967E-14  3.621379E-13 -2.781235E-13
         4   8  1.631911E-09  1.631911E-09  1.000030E-02 -2.080520E-15 -2.516992E-13 -2.517672E-13
         5   1  1.632100E-09  1.632100E-09  1.000030E-02 -8.174874E-14  1.503251E-14  1.484678E-14
         5   2  1.632092E-09  1.632124E-09  1.000030E-02 -3.984971E-14  8.016175E-14 -2.053191E-13
         5   3  1.632124E-09  1.632091E-09  1.000030E-02 -3.979445E-14 -2.051699E-13  7.989216E-14
         5   4  1.632150E-09  1.632150E-09  1.000030E-02 -1.999021E-14 -7.533541E-14 -7.544470E-14
         5   5  1.631975E-09  1.631974E-09  1.000030E-02  4.369649E-13 -1.353693E-12 -1.353465E-12
         5   6  1.632064E-09  1.632270E-09  1.000030E-02  1.852593E-13  8.960315E-13 -4.273109E-13
         5   7  1.632269E-09  1.632063E-09  1.000030E-02  1.858231E-13 -4.277589E-13  8.958026E-13
         5   8  1.631654E-09  1.631654E-09  1.000030E-02  1.676558E-13  1.005684E-12  1.006249E-12
         6   1  1.632094E-09  1.632126E-09  1.000030E-02  3.993917E-14 -8.018490E-14 -2.055325E-13
         6   2  1.632100E-09  1.632100E-09  1.000030E-02  8.187718E-14 -1.489507E-14  1.488109E-14
         6   3  1.632149E-09  1.632150E-09  1.000030E-02  2.042571E-14  7.519390E-14 -7.553989E-14
         6   4  1.632124E-09  1.632091E-09  1.000030E-02  3.969839E-14  2.051979E-13  8.001220E-14
         6   5  1.632064E-09  1.632269E-09  1.000030E-02 -1.854296E-13 -8.956779E-13 -4.273901E-13
         6   6  1.631974E-09  1.631974E-09  1.000030E-02 -4.370022E-13  1.353324E-12 -1.353222E-12
         6   7  1.631653E-09  1.631654E-09  1.000030E-02 -1.678493E-13 -1.005648E-12  1.006232E-12
         6   8  1.632269E-09  1.632063E-09  1.000030E-02 -1.857672E-13  4.275657E-13  8.959992E-13
         7   1  1.632124E-09  1.632092E-09  1.000030E-02  3.987143E-14 -2.054142E-13 -7.989195E-14
         7   2  1.632150E-09  1.632149E-09  1.000030E-02  2.044816E-14 -7.559927E-14  7.540292E-14
         7   3  1.632100E-09  1.632100E-09  1.000030E-02  8.176082E-14  1.463005E-14 -1.472046E-14
         7   4  1.632092E-09  1.632124E-09  1.000030E-02  3.967054E-14  7.977469E-14  2.051918E-13
         7   5  1.632269E-09  1.632064E-09  1.000030E-02 -1.854557E-13 -4.274357E-13 -8.960845E-13
         7   6  1.631654E-09  1.631653E-09  1.000030E-02 -1.674900E-13  1.005844E-12 -1.005986E-12
         7   7  1.631975E-09  1.631975E-09  1.000030E-02 -4.372086E-13 -1.353454E-12  1.353576E-12
         7   8  1.632062E-09  1.632268E-09  1.000030E-02 -1.855879E-13  8.957789E-13  4.270337E-13
         8   1  1.632149E-09  1.632149E-09  1.000030E-02 -2.014968E-14  7.542098E-14  7.552821E-14
         8   2  1.632123E-09  1.632091E-09  1.000030E-02 -3.983827E-14  2.054753E-13 -7.966279E-14
         8   3  1.632091E-09  1.632124E-09  1.000030E-02 -3.983389E-14 -7.963303E-14  2.052554E-13
         8   4  1.632100E-09  1.632101E-09  1.000030E-02 -8.161687E-14 -1.461827E-14 -1.488239E-14
         8   5  1.631652E-09  1.631652E-09  1.000030E-02  1.674554E-13 -1.005924E-12 -1.006032E-12
         8   6  1.632272E-09  1.632066E-09  1.000030E-02  1.853744E-13  4.276254E-13 -8.963964E-13
         8   7  1.632063E-09  1.632268E-09  1.000030E-02  1.855920E-13 -8.960022E-13  4.271739E-13
         8   8  1.631975E-09  1.631975E-09  1.000030E-02  4.370490E-13  1.353780E-12  1.353813E-12
         9   1  1.630768E-09  1.630769E-09  1.000030E-02 -6.425977E-13  8.239480E-13  8.240760E-13
         9   2  1.630801E-09  1.631318E-09  1.000030E-02 -4.084471E-13  4.381513E-13 -3.090585E-13
         9   3  1.631318E-09  1.630802E-09  1.000030E-02 -4.087504E-13 -3.092147E-13  4.381597E-13
         9   4  1.631233E-09  1.631233E-09  1.000030E-02 -1.562164E-13 -3.065891E-13 -3.063180E-13
         9   5  1.632276E-09  1.632277E-09  1.000030E-02  9.447049E-13  2.325289E-12  2.324959E-12
         9   6  1.632157E-09  1.629650E-09  1.000030E-02  9.485242E-13 -4.742906E-12  3.763915E-12
         9   7  1.629649E-09  1.632157E-09  1.000030E-02  9.481487E-13  3.764607E-12 -4.743336E-12
         9   8  1.631749E-09  1.631748E-09  1.000030E-02  1.269040E-13 -1.810395E-12 -1.811479E-12
        10   1  1.630802E-09  1.631318E-09  1.000030E-02  4.084361E-13 -4.380009E-13 -3.090144E-13
        10   2  1.630768E-09  1.630768E-09  1.000030E-02  6.425801E-13 -8.234932E-13  8.235036E-13
        10   3  1.631235E-09  1.631236E-09  1.000030E-02  1.559358E-13  3.065774E-13 -3.062507E-13
        10   4  1.631318E-09  1.630802E-09  1.000030E-02  4.088045E-13  3.089730E-13  4.380979E-13
        10   5  1.632158E-09  1.629649E-09  1.000030E-02 -9.479796E-13  4.742637E-12  3.764443E-12
        10   6  1.632275E-09  1.632275E-09  1.000030E-02 -9.446870E-13 -2.325326E-12  2.325439E-12
        10   7  1.631750E-09  1.631748E-09  1.000030E-02 -1.264039E-13  1.810748E-12 -1.811090E-12
        10   8  1.629648E-09  1.632157E-09  1.000030E-02 -9.479058E-13 -3.764907E-12 -4.742982E-12
        11   1  1.631319E-09  1.630803E-09  1.000030E-02  4.085065E-13 -3.090749E-13 -4.383871E-13
        11   2  1.631232E-09  1.631232E-09  1.000030E-02  1.558511E-13 -3.062655E-13  3.064105E-13
        11   3  1.630770E-09  1.630770E-09  1.000030E-02  6.426053E-13  8.235794E-13 -8.236202E-13
        11   4  1.630802E-09  1.631320E-09  1.000030E-02  4.086753E-13  4.383003E-13  3.089262E-13
        11   5  1.629651E-09  1.632158E-09  1.000030E-02 -9.480682E-13  3.764424E-12  4.743420E-12
        11   6  1.631750E-09  1.631750E-09  1.000030E-02 -1.266960E-13 -1.810601E-12  1.811305E-12
        11   7  1.632279E-09  1.632279E-09  1.000030E-02 -9.445391E-13  2.325181E-12 -2.325211E-12
        11   8  1.632157E-09  1.629649E-09  1.000030E-02 -9.479617E-13 -4.743026E-12 -3.764060E-12
        12   1  1.631233E-09  1.631233E-09  1.000030E-02 -1.559598E-13  3.064327E-13  3.064992E-13
        12   2  1.631319E-09  1.630802E-09  1.000030E-02 -4.085123E-13  3.085925E-13 -4.377877E-13
        12   3  1.630802E-09  1.631319E-09  1.000030E-02 -4.084715E-13 -4.378593E-13  3.087552E-13
        12   4  1.630770E-09  1.630770E-09  1.000030E-02 -6.426411E-13 -8.239893E-13 -8.239339E-13
        12   5  1.631749E-09  1.631750E-09  1.000030E-02  1.268392E-13  1.811028E-12  1.811068E-12
        12   6  1.629649E-09  1.632156E-09  1.000030E-02  9.482689E-13 -3.764779E-12  4.743303E-12
        12   7  1.632157E-09  1.629649E-09  1.000030E-02  9.480494E-13  4.743070E-12 -3.764339E-12
        12   8  1.632278E-09  1.632277E-09  1.000030E-02  9.444150E-13 -2.325022E-12 -2.325377E-12
        13   1  1.634059E-09  1.634058E-09  1.000030E-02 -2.420845E-12  1.694585E-12  1.694085E-12
        13   2  1.633886E-09  1.635436E-09  1.000030E-02 -1.400734E-12  9.971861E-13 -3.359154E-12
        13   3  1.635436E-09  1.633885E-09  1.000030E-02 -1.400095E-12 -3.359135E-12  9.975376E-13
        13   4  1.635596E-09  1.635596E-09  1.000030E-02 -6.237411E-13 -1.459864E-12 -1.460075E-12
        13   5  1.634841E-09  1.634841E-09  1.000030E-02  7.857002E-12 -1.857366E-11 -1.857343E-11
        13   6  1.635074E-09  1.635322E-09  1.000030E-02  4.177611E-12  1.103985E-11 -2.500183E-12
        13   7  1.635326E-09  1.635079E-09  1.000030E-02  4.177966E-12 -2.500362E-12  1.104028E-11
        13   8  1.628396E-09  1.628398E-09  1.000030E-02  2.686425E-12  1.143790E-11  1.143834E-11
        14   1  1.633887E-09  1.635439E-09  1.000030E-02  1.400331E-12 -9.977498E-13 -3.358772E-12
        14   2  1.634059E-09  1.634059E-09  1.000030E-02  2.420979E-12 -1.694999E-12  1.694910E-12
        14   3  1.635596E-09  1.635594E-09  1.000030E-02  6.232144E-13  1.460114E-12 -1.459690E-12
        14   4  1.635435E-09  1.633885E-09  1.000030E-02  1.400299E-12  3.359355E-12  9.980745E-13
        14   5  1.635074E-09  1.635321E-09  1.000030E-02 -4.178117E-12 -1.104020E-11 -2.500519E-12
        14   6  1.634840E-09  1.634840E-09  1.000030E-02 -7.856778E-12  1.857402E-11 -1.857399E-11
        14   7  1.628397E-09  1.628397E-09  1.000030E-02 -2.687011E-12 -1.143806E-11  1.143820E-11
        14   8  1.635322E-09  1.635075E-09  1.000030E-02 -4.177762E-12  2.500858E-12  1.104015E-11
        15   1  1.635436E-09  1.633885E-09  1.000030E-02  1.400358E-12 -3.359151E-12 -9.975132E-13
        15   2  1.635597E-09  1.635598E-09  1.000030E-02  6.236437E-13 -1.459963E-12  1.460006E-12
        15   3  1.634059E-09  1.634059E-09  1.000030E-02  2.420659E-12  1.695008E-12 -1.694936E-12
        15   4  1.633885E-09  1.635435E-09  1.000030E-02  1.400381E-12  9.976109E-13  3.359476E-12
        15   5  1.635321E-09  1.635074E-09  1.000030E-02 -4.178035E-12 -2.500198E-12 -1.104050E-11
        15   6  1.628395E-09  1.628396E-09  1.000030E-02 -2.686564E-12  1.143808E-11 -1.143823E-11
        15   7  1.634842E-09  1.634843E-09  1.000030E-02 -7.857273E-12 -1.857368E-11  1.857359E-11
        15   8  1.635076E-09  1.635323E-09  1.000030E-02 -4.177892E-12  1.104017E-11  2.500438E-12
        16   1  1.635596E-09  1.635595E-09  1.000030E-02 -6.237969E-13  1.460202E-12  1.459737E-12
        16   2  1.635435E-09  1.633884E-09  1.000030E-02 -1.400636E-12  3.359615E-12 -9.980598E-13
        16   3  1.633885E-09  1.635435E-09  1.000030E-02 -1.400315E-12 -9.979109E-13  3.359264E-12
        16   4  1.634059E-09  1.634059E-09  1.000030E-02 -2.420911E-12 -1.694870E-12 -1.694825E-12
        16   5  1.628399E-09  1.628398E-09  1.000030E-02  2.686842E-12 -1.143821E-11 -1.143804E-11
        16   6  1.635323E-09  1.635076E-09  1.000030E-02  4.177690E-12  2.500623E-12 -1.104017E-11
        16   7  1.635074E-09  1.635322E-09  1.000030E-02  4.178224E-12 -1.104040E-11  2.500434E-12
        16   8  1.634841E-09  1.634841E-09  1.000030E-02  7.856924E-12  1.857330E-11  1.857359E-11
        17   1  1.616942E-09  1.616943E-09  1.000030E-02 -1.222974E-11  1.254346E-11  1.254375E-11
        17   2  1.617246E-09  1.626890E-09  1.000030E-02 -7.884066E-12  5.049047E-12 -6.251963E-12
        17   3  1.626891E-09  1.617247E-09  1.000030E-02 -7.883956E-12 -6.252103E-12  5.048215E-12
        17   4  1.625701E-09  1.625702E-09  1.000030E-02 -3.135840E-12 -3.380280E-12 -3.380256E-12
        17   5  1.636585E-09  1.636585E-09  1.000030E-02  1.826389E-11  2.775529E-11  2.775522E-11
        17   6  1.638502E-09  1.605100E-09  1.000030E-02  1.422328E-11 -5.470151E-11  4.417941E-11
        17   7  1.605102E-09  1.638504E-09  1.000030E-02  1.422360E-11  4.417904E-11 -5.470123E-11
        17   8  1.628493E-09  1.628493E-09  1.000030E-02  3.275998E-12 -2.144868E-11 -2.144809E-11
        18   1  1.617248E-09  1.626891E-09  1.000030E-02  7.883888E-12 -5.048016E-12 -6.252339E-12
        18   2  1.616943E-09  1.616942E-09  1.000030E-02  1.222979E-11 -1.254371E-11  1.254357E-11
        18   3  1.625702E-09  1.625702E-09  1.000030E-02  3.135661E-12  3.380239E-12 -3.380639E-12
        18   4  1.626892E-09  1.617250E-09  1.000030E-02  7.883937E-12  6.251936E-12  5.047783E-12
        18   5  1.638503E-09  1.605100E-09  1.000030E-02 -1.422324E-11  5.470165E-11  4.417910E-11
        18   6  1.636585E-09  1.636585E-09  1.000030E-02 -1.826365E-11 -2.775486E-11  2.775504E-11
        18   7  1.628495E-09  1.628495E-09  1.000030E-02 -3.275826E-12  2.144833E-11 -2.144843E-11
        18   8  1.605100E-09  1.638503E-09  1.000030E-02 -1.422353E-11 -4.417901E-11 -5.470162E-11
        19   1  1.626890E-09  1.617246E-09  1.000030E-02  7.883945E-12 -6.251923E-12 -5.048319E-12
        19   2  1.625703E-09  1.625703E-09  1.000030E-02  3.135890E-12 -3.380349E-12  3.380341E-12
        19   3  1.616944E-09  1.616944E-09  1.000030E-02  1.222979E-11  1.254331E-11 -1.254318E-11
        19   4  1.617250E-09  1.626894E-09  1.000030E-02  7.884106E-12  5.048125E-12  6.251995E-12
        19   5  1.605102E-09  1.638504E-09  1.000030E-02 -1.422340E-11  4.417906E-11  5.470127E-11
        19   6  1.628493E-09  1.628493E-09  1.000030E-02 -3.275711E-12 -2.144861E-11  2.144835E-11
        19   7  1.636587E-09  1.636587E-09  1.000030E-02 -1.826377E-11  2.775533E-11 -2.775527E-11
        19   8  1.638504E-09  1.605102E-09  1.000030E-02 -1.422338E-11 -5.470128E-11 -4.417927E-11
        20   1  1.625702E-09  1.625701E-09  1.000030E-02 -3.135668E-12  3.380021E-12  3.380422E-12
        20   2  1.626891E-09  1.617248E-09  1.000030E-02 -7.883986E-12  6.251892E-12 -5.048469E-12
        20   3  1.617247E-09  1.626891E-09  1.000030E-02 -7.883891E-12 -5.048336E-12  6.252202E-12
        20   4  1.616944E-09  1.616943E-09  1.000030E-02 -1.222976E-11 -1.254319E-11 -1.254320E-11
        20   5  1.628493E-09  1.628493E-09  1.000030E-02  3.275789E-12  2.144816E-11  2.144842E-11
        20   6  1.605101E-09  1.638503E-09  1.000030E-02  1.422335E-11 -4.417931E-11  5.470149E-11
        20   7  1.638504E-09  1.605101E-09  1.000030E-02  1.422335E-11  5.470138E-11 -4.417916E-11
        20   8  1.636586E-09  1.636586E-09  1.000030E-02  1.826392E-11 -2.775506E-11 -2.775519E-11
        21   1  1.656834E-09  1.656834E-09  1.000030E-02 -3.403045E-11  1.869783E-11  1.869795E-11