
 displacements (vx,vy,vz) for set NALL and time  0.1000000E-02

         1  0.000000E+00  0.000000E+00  0.000000E+00
         2 -6.445694E-04  0.000000E+00  0.000000E+00
         3 -6.445694E-04 -6.445694E-04  0.000000E+00
         4 -8.324771E-17 -6.445694E-04  0.000000E+00
         5  4.440957E-11  4.441176E-11  1.185097E-02
         6 -6.445694E-04  4.441173E-11  1.185097E-02
         7 -6.445694E-04 -6.445694E-04  1.185097E-02
         8  4.440951E-11 -6.445694E-04  1.185097E-02
         9 -1.611423E-04  1.399540E-15  0.000000E+00
        10 -3.222847E-04  3.580411E-15  0.000000E+00
        11 -4.834270E-04  1.418039E-15  0.000000E+00
        12 -6.445694E-04 -1.611423E-04  0.000000E+00
        13 -6.445694E-04 -3.222847E-04  0.000000E+00
        14 -6.445694E-04 -4.834270E-04  0.000000E+00
        15 -4.834270E-04 -6.445694E-04  0.000000E+00
        16 -3.222847E-04 -6.445694E-04  0.000000E+00
        17 -1.611423E-04 -6.445694E-04  0.000000E+00
        18  1.387163E-15 -4.834270E-04  0.000000E+00
        19  3.581998E-15 -3.222847E-04  0.000000E+00
        20  1.392507E-15 -1.611423E-04  0.000000E+00
        21 -1.611423E-04  4.710662E-11  1.185097E-02
        22 -3.222847E-04  4.680594E-11  1.185097E-02
        23 -4.834270E-04  4.710663E-11  1.185097E-02
        24 -6.445694E-04 -1.611423E-04  1.185097E-02
        25 -6.445694E-04 -3.222847E-04  1.185097E-02
        26 -6.445694E-04 -4.834270E-04  1.185097E-02
        27 -4.834270E-04 -6.445694E-04  1.185097E-02
        28 -3.222847E-04 -6.445694E-04  1.185097E-02
        29 -1.611423E-04 -6.445694E-04  1.185097E-02
        30  4.710444E-11 -4.834270E-04  1.185097E-02
        31  4.680381E-11 -3.222847E-04  1.185097E-02
        32  4.710448E-11 -1.611423E-04  1.185097E-02
        33 -6.445694E-04  2.977136E-16  7.406858E-04
        34 -6.445694E-04 -5.992863E-15  1.481372E-03
        35 -6.445694E-04 -1.948715E-15  2.222058E-03
        36 -6.445694E-04 -1.272685E-15  2.962743E-03
        37 -6.445694E-04  1.954258E-14  3.703429E-03
        38 -6.445694E-04 -4.287200E-14  4.444115E-03
        39 -6.445694E-04 -4.107041E-14  5.184801E-03
        40 -6.445694E-04 -4.256506E-14  5.925487E-03
        41 -6.445694E-04  2.919453E-13  6.666173E-03
        42 -6.445694E-04 -4.199335E-13  7.406858E-03
        43 -6.445694E-04 -5.876937E-13  8.147544E-03
        44 -6.445694E-04 -7.383221E-13  8.888230E-03
        45 -6.445694E-04  4.357734E-12  9.628916E-03
        46 -6.445694E-04 -2.388023E-12  1.036960E-02
        47 -6.445694E-04 -1.093344E-11  1.111029E-02
        48 -1.093550E-11 -1.093346E-11  1.111029E-02
        49 -2.389947E-12 -2.388039E-12  1.036960E-02
        50  4.355995E-12  4.357756E-12  9.628916E-03
        51 -7.399190E-13 -7.383413E-13  8.888230E-03
        52 -5.891766E-13 -5.876863E-13  8.147544E-03
        53 -4.212865E-13 -4.198853E-13  7.406858E-03
        54  2.907591E-13  2.920463E-13  6.666173E-03
        55 -4.365029E-14 -4.255206E-14  5.925487E-03
        56 -4.193409E-14 -4.102886E-14  5.184801E-03
        57 -4.357013E-14 -4.281647E-14  4.444115E-03
        58  1.900716E-14  1.958063E-14  3.703429E-03
        59 -1.684143E-15 -1.208658E-15  2.962743E-03
        60 -2.210718E-15 -1.957381E-15  2.222058E-03
        61 -6.117230E-15 -6.017661E-15  1.481372E-03
        62  2.399129E-16  2.939721E-16  7.406858E-04
        63 -6.445694E-04 -6.445694E-04  7.406858E-04
        64 -6.445694E-04 -6.445694E-04  1.481372E-03
        65 -6.445694E-04 -6.445694E-04  2.222058E-03
        66 -6.445694E-04 -6.445694E-04  2.962743E-03
        67 -6.445694E-04 -6.445694E-04  3.703429E-03
        68 -6.445694E-04 -6.445694E-04  4.444115E-03
        69 -6.445694E-04 -6.445694E-04  5.184801E-03
        70 -6.445694E-04 -6.445694E-04  5.925487E-03
        71 -6.445694E-04 -6.445694E-04  6.666173E-03
        72 -6.445694E-04 -6.445694E-04  7.406858E-03
        73 -6.445694E-04 -6.445694E-04  8.147544E-03
        74 -6.445694E-04 -6.445694E-04  8.888230E-03
        75 -6.445694E-04 -6.445694E-04  9.628916E-03
        76 -6.445694E-04 -6.445694E-04  1.036960E-02
        77 -6.445694E-04 -6.445694E-04  1.111029E-02
        78  2.471717E-16 -6.445694E-04  7.406858E-04
        79 -6.107737E-15 -6.445694E-04  1.481372E-03
        80 -2.192847E-15 -6.445694E-04  2.222058E-03
        81 -1.641636E-15 -6.445694E-04  2.962743E-03
        82  1.900615E-14 -6.445694E-04  3.703429E-03
        83 -4.358447E-14 -6.445694E-04  4.444115E-03
        84 -4.195370E-14 -6.445694E-04  5.184801E-03
        85 -4.359460E-14 -6.445694E-04  5.925487E-03
        86  2.907875E-13 -6.445694E-04  6.666173E-03
        87 -4.212673E-13 -6.445694E-04  7.406858E-03
        88 -5.891521E-13 -6.445694E-04  8.147544E-03
        89 -7.399146E-13 -6.445694E-04  8.888230E-03
        90  4.355968E-12 -6.445694E-04  9.628916E-03
        91 -2.389941E-12 -6.445694E-04  1.036960E-02
        92 -1.093545E-11 -6.445694E-04  1.111029E-02
        93 -3.222847E-04 -1.611423E-04  0.000000E+00
        94 -1.611423E-04 -3.222847E-04  0.000000E+00
        95 -3.222847E-04 -3.222847E-04  0.000000E+00
        96 -4.834270E-04 -3.222847E-04  0.000000E+00
        97 -3.222847E-04 -4.834270E-04  0.000000E+00
        98 -3.222847E-04 -1.611423E-04  1.185097E-02
        99 -1.611423E-04 -3.222847E-04  1.185097E-02
       100 -3.222847E-04 -3.222847E-04  1.185097E-02
       101 -4.834270E-04 -3.222847E-04  1.185097E-02
       102 -3.222847E-04 -4.834270E-04  1.185097E-02
       103 -3.222847E-04 -3.879620E-16  7.406858E-04
       104 -1.611423E-04 -4.505295E-15  1.481372E-03
       105 -3.222847E-04 -3.919067E-15  1.481372E-03
       106 -4.834270E-04 -4.549250E-15  1.481372E-03
       107 -3.222847E-04 -6.139951E-15  2.222058E-03
       108 -1.611423E-04  6.890131E-15  2.962743E-03
       109 -3.222847E-04  1.615163E-14  2.962743E-03
       110 -4.834270E-04  6.898898E-15  2.962743E-03
       111 -3.222847E-04  1.232452E-14  3.703429E-03
       112 -1.611423E-04 -2.584719E-14  4.444115E-03
       113 -3.222847E-04 -8.739015E-15  4.444115E-03
       114 -4.834270E-04 -2.589651E-14  4.444115E-03
       115 -3.222847E-04 -7.580294E-14  5.184801E-03
       116 -1.611423E-04  4.883314E-14  5.925487E-03
       117 -3.222847E-04  1.338224E-13  5.925487E-03
       118 -4.834270E-04  4.883836E-14  5.925487E-03
       119 -3.222847E-04  1.716055E-13  6.666173E-03
       120 -1.611423E-04 -2.090301E-13  7.406858E-03
       121 -3.222847E-04  4.011247E-14  7.406858E-03
       122 -4.834270E-04 -2.089863E-13  7.406858E-03
       123 -3.222847E-04 -8.884537E-13  8.147544E-03
       124 -1.611423E-04  3.554579E-13  8.888230E-03
       125 -3.222847E-04  1.326071E-12  8.888230E-03
       126 -4.834270E-04  3.554095E-13  8.888230E-03
       127 -3.222847E-04  2.492060E-12  9.628916E-03
       128 -1.611423E-04  2.323247E-12  1.036960E-02
       129 -3.222847E-04  7.427619E-12  1.036960E-02
       130 -4.834270E-04  2.323237E-12  1.036960E-02
       131 -3.222847E-04 -2.146060E-11  1.111029E-02
       132 -6.445694E-04 -3.222847E-04  7.406858E-04
       133 -6.445694E-04 -1.611423E-04  1.481372E-03
       134 -6.445694E-04 -3.222847E-04  1.481372E-03
       135 -6.445694E-04 -4.834270E-04  1.481372E-03
       136 -6.445694E-04 -3.222847E-04  2.222058E-03
       137 -6.445694E-04 -1.611423E-04  2.962743E-03
       138 -6.445694E-04 -3.222847E-04  2.962743E-03
       139 -6.445694E-04 -4.834270E-04  2.962743E-03
       140 -6.445694E-04 -3.222847E-04  3.703429E-03
       141 -6.445694E-04 -1.611423E-04  4.444115E-03
       142 -6.445694E-04 -3.222847E-04  4.444115E-03
       143 -6.445694E-04 -4.834270E-04  4.444115E-03
       144 -6.445694E-04 -3.222847E-04  5.184801E-03
       145 -6.445694E-04 -1.611423E-04  5.925487E-03
       146 -6.445694E-04 -3.222847E-04  5.925487E-03
       147 -6.445694E-04 -4.834270E-04  5.925487E-03
       148 -6.445694E-04 -3.222847E-04  6.666173E-03
       149 -6.445694E-04 -1.611423E-04  7.406858E-03
       150 -6.445694E-04 -3.222847E-04  7.406858E-03
       151 -6.445694E-04 -4.834270E-04  7.406858E-03
       152 -6.445694E-04 -3.222847E-04  8.147544E-03
       153 -6.445694E-04 -1.611423E-04  8.888230E-03
       154 -6.445694E-04 -3.222847E-04  8.888230E-03
       155 -6.445694E-04 -4.834270E-04  8.888230E-03
       156 -6.445694E-04 -3.222847E-04  9.628916E-03
       157 -6.445694E-04 -1.611423E-04  1.036960E-02
       158 -6.445694E-04 -3.222847E-04  1.036960E-02
       159 -6.445694E-04 -4.834270E-04  1.036960E-02
       160 -6.445693E-04 -3.222847E-04  1.111029E-02
       161 -3.222847E-04 -6.445694E-04  7.406858E-04
       162 -4.834270E-04 -6.445694E-04  1.481372E-03
       163 -3.222847E-04 -6.445694E-04  1.481372E-03
       164 -1.611423E-04 -6.445694E-04  1.481372E-03
       165 -3.222847E-04 -6.445694E-04  2.222058E-03
       166 -4.834270E-04 -6.445694E-04  2.962743E-03
       167 -3.222847E-04 -6.445694E-04  2.962743E-03
       168 -1.611423E-04 -6.445694E-04  2.962743E-03
       169 -3.222847E-04 -6.445694E-04  3.703429E-03
       170 -4.834270E-04 -6.445694E-04  4.444115E-03
       171 -3.222847E-04 -6.445694E-04  4.444115E-03
       172 -1.611423E-04 -6.445694E-04  4.444115E-03
       173 -3.222847E-04 -6.445694E-04  5.184801E-03
       174 -4.834270E-04 -6.445694E-04  5.925487E-03
       175 -3.222847E-04 -6.445694E-04  5.925487E-03
       176 -1.611423E-04 -6.445694E-04  5.925487E-03
       177 -3.222847E-04 -6.445694E-04  6.666173E-03
       178 -4.834270E-04 -6.445694E-04  7.406858E-03
       179 -3.222847E-04 -6.445694E-04  7.406858E-03
       180 -1.611423E-04 -6.445694E-04  7.406858E-03
       181 -3.222847E-04 -6.445694E-04  8.147544E-03
       182 -4.834270E-04 -6.445694E-04  8.888230E-03
       183 -3.222847E-04 -6.445694E-04  8.888230E-03
       184 -1.611423E-04 -6.445694E-04  8.888230E-03
       185 -3.222847E-04 -6.445694E-04  9.628916E-03
       186 -4.834270E-04 -6.445694E-04  1.036960E-02
       187 -3.222847E-04 -6.445694E-04  1.036960E-02
       188 -1.611423E-04 -6.445694E-04  1.036960E-02
       189 -3.222847E-04 -6.445693E-04  1.111029E-02
       190 -4.202677E-16 -3.222847E-04  7.406858E-04
       191 -4.651208E-15 -4.834270E-04  1.481372E-03
       192 -4.072050E-15 -3.222847E-04  1.481372E-03
       193 -4.673962E-15 -1.611423E-04  1.481372E-03
       194 -6.338663E-15 -3.222847E-04  2.222058E-03
       195  6.526713E-15 -4.834270E-04  2.962743E-03
       196  1.581203E-14 -3.222847E-04  2.962743E-03
       197  6.558254E-15 -1.611423E-04  2.962743E-03
       198  1.181142E-14 -3.222847E-04  3.703429E-03
       199 -2.656453E-14 -4.834270E-04  4.444115E-03
       200 -9.425315E-15 -3.222847E-04  4.444115E-03
       201 -2.657604E-14 -1.611423E-04  4.444115E-03
       202 -7.670071E-14 -3.222847E-04  5.184801E-03
       203  4.779027E-14 -4.834270E-04  5.925487E-03
       204  1.327846E-13 -3.222847E-04  5.925487E-03
       205  4.778287E-14 -1.611423E-04  5.925487E-03
       206  1.703974E-13 -3.222847E-04  6.666173E-03
       207 -2.103707E-13 -4.834270E-04  7.406858E-03
       208  3.876657E-14 -3.222847E-04  7.406858E-03
       209 -2.103446E-13 -1.611423E-04  7.406858E-03
       210 -8.899119E-13 -3.222847E-04  8.147544E-03
       211  3.538528E-13 -4.834270E-04  8.888230E-03
       212  1.324473E-12 -3.222847E-04  8.888230E-03
       213  3.538386E-13 -1.611423E-04  8.888230E-03
       214  2.490315E-12 -3.222847E-04  9.628916E-03
       215  2.321345E-12 -4.834270E-04  1.036960E-02
       216  7.425713E-12 -3.222847E-04  1.036960E-02
       217  2.321331E-12 -1.611423E-04  1.036960E-02
       218 -2.146267E-11 -3.222847E-04  1.111029E-02
       219 -3.222847E-04 -3.222847E-04  7.406858E-04
       220 -3.222847E-04 -1.611423E-04  1.481372E-03
       221 -1.611423E-04 -3.222847E-04  1.481372E-03
       222 -3.222847E-04 -3.222847E-04  1.481372E-03
       223 -4.834270E-04 -3.222847E-04  1.481372E-03
       224 -3.222847E-04 -4.834270E-04  1.481372E-03
       225 -3.222847E-04 -3.222847E-04  2.222058E-03
       226 -3.222847E-04 -1.611423E-04  2.962743E-03
       227 -1.611423E-04 -3.222847E-04  2.962743E-03
       228 -3.222847E-04 -3.222847E-04  2.962743E-03
       229 -4.834270E-04 -3.222847E-04  2.962743E-03
       230 -3.222847E-04 -4.834270E-04  2.962743E-03
       231 -3.222847E-04 -3.222847E-04  3.703429E-03
       232 -3.222847E-04 -1.611423E-04  4.444115E-03
       233 -1.611423E-04 -3.222847E-04  4.444115E-03
       234 -3.222847E-04 -3.222847E-04  4.444115E-03
       235 -4.834270E-04 -3.222847E-04  4.444115E-03
       236 -3.222847E-04 -4.834270E-04  4.444115E-03
       237 -3.222847E-04 -3.222847E-04  5.184801E-03
       238 -3.222847E-04 -1.611423E-04  5.925487E-03
       239 -1.611423E-04 -3.222847E-04  5.925487E-03
       240 -3.222847E-04 -3.222847E-04  5.925487E-03
       241 -4.834270E-04 -3.222847E-04  5.925487E-03
       242 -3.222847E-04 -4.834270E-04  5.925487E-03
       243 -3.222847E-04 -3.222847E-04  6.666173E-03
       244 -3.222847E-04 -1.611423E-04  7.406858E-03
       245 -1.611423E-04 -3.222847E-04  7.406858E-03
       246 -3.222847E-04 -3.222847E-04  7.406858E-03
       247 -4.834270E-04 -3.222847E-04  7.406858E-03
       248 -3.222847E-04 -4.834270E-04  7.406858E-03
       249 -3.222847E-04 -3.222847E-04  8.147544E-03
       250 -3.222847E-04 -1.611423E-04  8.888230E-03
       251 -1.611423E-04 -3.222847E-04  8.888230E-03
       252 -3.222847E-04 -3.222847E-04  8.888230E-03
       253 -4.834270E-04 -3.222847E-04  8.888230E-03
       254 -3.222847E-04 -4.834270E-04  8.888230E-03
       255 -3.222847E-04 -3.222847E-04  9.628916E-03
       256 -3.222847E-04 -1.611423E-04  1.036960E-02
       257 -1.611423E-04 -3.222847E-04  1.036960E-02
       258 -3.222847E-04 -3.222847E-04  1.036960E-02
       259 -4.834270E-04 -3.222847E-04  1.036960E-02
       260 -3.222847E-04 -4.834270E-04  1.036960E-02
       261 -3.222847E-04 -3.222847E-04  1.111029E-02

 stresses (elem, integ.pnt.,sxx,syy,szz,sxy,sxz,syz) for set EALL and time  0.1000000E-02

         1   1  2.415448E-06  2.415458E-06  1.001286E+02 -1.186307E-10  4.585599E-10  4.585962E-10
         1   2  2.414414E-06  2.414806E-06  1.001286E+02 -8.629708E-11  2.380021E-10 -3.395967E-11
         1   3  2.414817E-06  2.414415E-06  1.001286E+02 -8.445923E-11 -3.414089E-11  2.374346E-10
         1   4  2.415080E-06  2.415090E-06  1.001286E+02 -1.224352E-10 -1.238857E-10 -1.236836E-10
         1   5  2.413284E-06  2.413284E-06  1.001286E+02  3.736579E-10  4.360308E-10  4.345042E-10
         1   6  2.416700E-06  2.415938E-06  1.001286E+02  2.916762E-10 -2.610488E-10  2.232930E-10
         1   7  2.415955E-06  2.416707E-06  1.001286E+02  2.934473E-10  2.208963E-10 -2.630197E-10
         1   8  2.414997E-06  2.415007E-06  1.001286E+02  3.012991E-10 -3.061382E-10 -3.077263E-10
         2   1  2.414415E-06  2.414817E-06  1.001286E+02  8.887848E-11 -2.367433E-10 -3.556486E-11
         2   2  2.415401E-06  2.415401E-06  1.001286E+02  1.164394E-10 -4.606365E-10  4.589900E-10
         2   3  2.415031E-06  2.415041E-06  1.001286E+02  1.208825E-10  1.217095E-10 -1.224082E-10
         2   4  2.414817E-06  2.414415E-06  1.001286E+02  8.724089E-11  3.434388E-11  2.390986E-10
         2   5  2.416691E-06  2.415929E-06  1.001286E+02 -2.961131E-10  2.585282E-10  2.220119E-10
         2   6  2.413284E-06  2.413284E-06  1.001286E+02 -3.706386E-10 -4.331383E-10  4.357429E-10
         2   7  2.414999E-06  2.414999E-06  1.001286E+02 -3.026207E-10  3.072413E-10 -3.056971E-10
         2   8  2.415939E-06  2.416702E-06  1.001286E+02 -2.940245E-10 -2.232480E-10 -2.596269E-10
         3   1  2.414780E-06  2.414359E-06  1.001286E+02  8.875885E-11 -3.319972E-11 -2.359793E-10
         3   2  2.415042E-06  2.415032E-06  1.001286E+02  1.226794E-10 -1.243719E-10  1.218410E-10
         3   3  2.415399E-06  2.415399E-06  1.001286E+02  1.144565E-10  4.620133E-10 -4.606955E-10
         3   4  2.414365E-06  2.414767E-06  1.001286E+02  8.714831E-11  2.377505E-10  3.431954E-11
         3   5  2.415887E-06  2.416649E-06  1.001286E+02 -2.956789E-10  2.205745E-10  2.603809E-10
         3   6  2.415006E-06  2.415006E-06  1.001286E+02 -3.010325E-10 -3.057604E-10  3.068946E-10
         3   7  2.413295E-06  2.413295E-06  1.001286E+02 -3.716219E-10  4.349439E-10 -4.319427E-10
         3   8  2.416690E-06  2.415928E-06  1.001286E+02 -2.939756E-10 -2.584969E-10 -2.227803E-10
         4   1  2.415040E-06  2.415040E-06  1.001286E+02 -1.236904E-10  1.220861E-10  1.231568E-10
         4   2  2.414825E-06  2.414413E-06  1.001286E+02 -8.567978E-11  3.544332E-11 -2.346417E-10
         4   3  2.414403E-06  2.414815E-06  1.001286E+02 -8.392984E-11 -2.352127E-10  3.329310E-11
         4   4  2.415461E-06  2.415451E-06  1.001286E+02 -1.162306E-10 -4.618318E-10 -4.598386E-10
         4   5  2.415010E-06  2.415000E-06  1.001286E+02  3.030279E-10  3.076974E-10  3.075344E-10
         4   6  2.415939E-06  2.416691E-06  1.001286E+02  2.907285E-10 -2.226188E-10  2.589748E-10
         4   7  2.416681E-06  2.415929E-06  1.001286E+02  2.925768E-10  2.608766E-10 -2.244023E-10
         4   8  2.413291E-06  2.413291E-06  1.001286E+02  3.701036E-10 -4.361473E-10 -4.340214E-10
         5   1  2.415830E-06  2.415830E-06  1.001286E+02 -1.225860E-10 -7.330819E-10 -7.322485E-10
         5   2  2.415539E-06  2.415278E-06  1.001286E+02 -7.284289E-11 -7.710896E-10 -2.303146E-11
         5   3  2.415280E-06  2.415531E-06  1.001286E+02 -7.106019E-11 -1.865491E-11 -7.696293E-10
         5   4  2.415192E-06  2.415192E-06  1.001286E+02  5.485621E-11  5.433870E-11  5.718165E-11
         5   5  2.420378E-06  2.420378E-06  1.001286E+02 -5.126679E-10 -1.654731E-09 -1.651574E-09
         5   6  2.411158E-06  2.412332E-06  1.001286E+02 -5.296279E-10  1.299661E-09 -5.566176E-10
         5   7  2.412295E-06  2.411111E-06  1.001286E+02 -5.279023E-10 -5.560256E-10  1.299136E-09
         5   8  2.415714E-06  2.415724E-06  1.001286E+02 -6.659733E-10  1.220582E-09  1.220078E-09
         6   1  2.415548E-06  2.415267E-06  1.001286E+02  7.135055E-11  7.695450E-10 -2.113172E-11
         6   2  2.415833E-06  2.415833E-06  1.001286E+02  1.254507E-10  7.351004E-10 -7.328456E-10
         6   3  2.415200E-06  2.415210E-06  1.001286E+02 -5.182197E-11 -5.725899E-11  5.702849E-11
         6   4  2.415240E-06  2.415501E-06  1.001286E+02  6.859232E-11  2.267913E-11 -7.694146E-10
         6   5  2.411158E-06  2.412332E-06  1.001286E+02  5.290495E-10 -1.296008E-09 -5.551300E-10
         6   6  2.420377E-06  2.420367E-06  1.001286E+02  5.133455E-10  1.650134E-09 -1.651939E-09
         6   7  2.415711E-06  2.415731E-06  1.001286E+02  6.672984E-10 -1.219283E-09  1.219430E-09
         6   8  2.412333E-06  2.411159E-06  1.001286E+02  5.277418E-10  5.540469E-10  1.299445E-09
         7   1  2.415276E-06  2.415537E-06  1.001286E+02  7.101059E-11 -2.038517E-11  7.678935E-10
         7   2  2.415152E-06  2.415152E-06  1.001286E+02 -4.924482E-11  5.440151E-11 -5.515422E-11
         7   3  2.415839E-06  2.415839E-06  1.001286E+02  1.228062E-10 -7.345525E-10  7.341250E-10
         7   4  2.415497E-06  2.415226E-06  1.001286E+02  6.877639E-11 -7.708780E-10  2.146077E-11
         7   5  2.412331E-06  2.411167E-06  1.001286E+02  5.287801E-10 -5.569735E-10 -1.299779E-09
         7   6  2.415672E-06  2.415672E-06  1.001286E+02  6.684064E-10  1.221016E-09 -1.220120E-09
         7   7  2.420367E-06  2.420377E-06  1.001286E+02  5.123152E-10 -1.652823E-09  1.650245E-09
         7   8  2.411208E-06  2.412382E-06  1.001286E+02  5.281371E-10  1.300323E-09  5.556565E-10
         8   1  2.415161E-06  2.415151E-06  1.001286E+02  5.223653E-11 -5.735503E-11 -5.607075E-11
         8   2  2.415278E-06  2.415549E-06  1.001286E+02 -7.280236E-11  2.205147E-11  7.676181E-10
         8   3  2.415499E-06  2.415228E-06  1.001286E+02 -7.028664E-11  7.688396E-10  2.176342E-11
         8   4  2.415876E-06  2.415886E-06  1.001286E+02 -1.191266E-10  7.360416E-10  7.325111E-10
         8   5  2.415683E-06  2.415683E-06  1.001286E+02 -6.673149E-10 -1.219167E-09 -1.220250E-09
         8   6  2.412283E-06  2.411109E-06  1.001286E+02 -5.286106E-10  5.532522E-10 -1.295804E-09
         8   7  2.411161E-06  2.412335E-06  1.001286E+02 -5.284761E-10 -1.295055E-09  5.560712E-10
         8   8  2.420327E-06  2.420327E-06  1.001286E+02 -5.109489E-10  1.651355E-09  1.650288E-09
         9   1  2.411383E-06  2.411383E-06  1.001286E+02 -3.532080E-10  2.456966E-09  2.455465E-09
         9   2  2.414412E-06  2.415315E-06  1.001286E+02 -2.370449E-10  2.045535E-09 -5.067503E-10
         9   3  2.415287E-06  2.414364E-06  1.001286E+02 -2.406112E-10 -5.099402E-10  2.044519E-09
         9   4  2.414100E-06  2.414100E-06  1.001286E+02 -2.566920E-10 -4.348922E-10 -4.372232E-10
         9   5  2.403030E-06  2.403030E-06  1.001286E+02  2.618118E-09  4.372286E-09  4.371426E-09
         9   6  2.424002E-06  2.421192E-06  1.001286E+02  2.374897E-09 -5.070530E-09  3.405688E-09
         9   7  2.421137E-06  2.423956E-06  1.001286E+02  2.372765E-09  3.405675E-09 -5.070536E-09
         9   8  2.413005E-06  2.413005E-06  1.001286E+02  2.164245E-09 -3.577091E-09 -3.576922E-09
        10   1  2.414412E-06  2.415336E-06  1.001286E+02  2.374110E-10 -2.045167E-09 -5.079463E-10
        10   2  2.411382E-06  2.411382E-06  1.001286E+02  3.523407E-10 -2.457682E-09  2.456314E-09
        10   3  2.414041E-06  2.414051E-06  1.001286E+02  2.573185E-10  4.358813E-10 -4.376006E-10
        10   4  2.415328E-06  2.414415E-06  1.001286E+02  2.391092E-10  5.080464E-10  2.042566E-09
        10   5  2.423943E-06  2.421144E-06  1.001286E+02 -2.374780E-09  5.068858E-09  3.405196E-09
        10   6  2.403067E-06  2.403057E-06  1.001286E+02 -2.617170E-09 -4.371903E-09  4.371785E-09
        10   7  2.412999E-06  2.412999E-06  1.001286E+02 -2.162651E-09  3.576627E-09 -3.576260E-09
        10   8  2.421148E-06  2.423957E-06  1.001286E+02 -2.373764E-09 -3.404754E-09 -5.068657E-09
        11   1  2.415308E-06  2.414405E-06  1.001286E+02  2.373751E-10 -5.089859E-10 -2.043659E-09
        11   2  2.414091E-06  2.414091E-06  1.001286E+02  2.535342E-10 -4.352529E-10  4.345692E-10
        11   3  2.411383E-06  2.411373E-06  1.001286E+02  3.553188E-10  2.457209E-09 -2.456726E-09
        11   4  2.414461E-06  2.415374E-06  1.001286E+02  2.382646E-10  2.043220E-09  5.090869E-10
        11   5  2.421205E-06  2.424004E-06  1.001286E+02 -2.373387E-09  3.406596E-09  5.070298E-09
        11   6  2.413004E-06  2.413004E-06  1.001286E+02 -2.163781E-09 -3.577189E-09  3.577799E-09
        11   7  2.403056E-06  2.403056E-06  1.001286E+02 -2.614747E-09  4.372509E-09 -4.372855E-09
        11   8  2.423996E-06  2.421187E-06  1.001286E+02 -2.374004E-09 -5.070450E-09 -3.405152E-09
        12   1  2.414041E-06  2.414051E-06  1.001286E+02 -2.552967E-10  4.358321E-10  4.344081E-10
        12   2  2.415277E-06  2.414374E-06  1.001286E+02 -2.378158E-10  5.088587E-10 -2.044419E-09
        12   3  2.414374E-06  2.415287E-06  1.001286E+02 -2.408951E-10 -2.044539E-09  5.099380E-10
        12   4  2.411352E-06  2.411342E-06  1.001286E+02 -3.556268E-10 -2.454921E-09 -2.452758E-09
        12   5  2.413043E-06  2.413053E-06  1.001286E+02  2.164274E-09  3.577322E-09  3.577523E-09
        12   6  2.421197E-06  2.424016E-06  1.001286E+02  2.373373E-09 -3.404492E-09  5.068754E-09
        12   7  2.423997E-06  2.421188E-06  1.001286E+02  2.373366E-09  5.068026E-09 -3.405485E-09
        12   8  2.403060E-06  2.403060E-06  1.001286E+02  2.617141E-09 -4.372111E-09 -4.372824E-09
        13   1  2.423505E-06  2.423505E-06  1.001286E+02 -1.381164E-09 -4.427734E-09 -4.427365E-09
        13   2  2.418022E-06  2.417590E-06  1.001286E+02 -7.591032E-10 -4.709920E-09 -3.358719E-10
        13   3  2.417623E-06  2.418055E-06  1.001286E+02 -7.597773E-10 -3.367712E-10 -4.707201E-09
        13   4  2.417542E-06  2.417542E-06  1.001286E+02  6.989891E-11  7.827624E-10  7.829778E-10
        13   5  2.449752E-06  2.449762E-06  1.001286E+02 -1.236926E-09 -1.973902E-08 -1.973821E-08
        13   6  2.393598E-06  2.393127E-06  1.001286E+02 -3.032975E-09  1.698249E-08 -8.257120E-09
        13   7  2.393087E-06  2.393548E-06  1.001286E+02 -3.032911E-09 -8.254048E-09  1.698129E-08
        13   8  2.426450E-06  2.426460E-06  1.001286E+02 -4.315748E-09  1.357244E-08  1.357461E-08
        14   1  2.418020E-06  2.417608E-06  1.001286E+02  7.594828E-10  4.707748E-09 -3.347328E-10
        14   2  2.423530E-06  2.423530E-06  1.001286E+02  1.379618E-09  4.428538E-09 -4.425997E-09
        14   3  2.417542E-06  2.417552E-06  1.001286E+02 -6.724689E-11 -7.820637E-10  7.835016E-10
        14   4  2.417609E-06  2.418021E-06  1.001286E+02  7.567109E-10  3.358734E-10 -4.706574E-09
        14   5  2.393580E-06  2.393109E-06  1.001286E+02  3.032777E-09 -1.698082E-08 -8.257463E-09
        14   6  2.449812E-06  2.449802E-06  1.001286E+02  1.237247E-09  1.973821E-08 -1.974151E-08
        14   7  2.426441E-06  2.426451E-06  1.001286E+02  4.315409E-09 -1.357483E-08  1.357358E-08
        14   8  2.393057E-06  2.393528E-06  1.001286E+02  3.030893E-09  8.256744E-09  1.697880E-08
        15   1  2.417632E-06  2.418054E-06  1.001286E+02  7.583125E-10 -3.371922E-10  4.705580E-09
        15   2  2.417541E-06  2.417541E-06  1.001286E+02 -6.866264E-11  7.834322E-10 -7.836833E-10
        15   3  2.423523E-06  2.423523E-06  1.001286E+02  1.379927E-09 -4.425531E-09  4.426824E-09
        15   4  2.418061E-06  2.417639E-06  1.001286E+02  7.567128E-10 -4.706995E-09  3.374903E-10
        15   5  2.393057E-06  2.393528E-06  1.001286E+02  3.030861E-09 -8.254416E-09 -1.697823E-08
        15   6  2.426449E-06  2.426449E-06  1.001286E+02  4.314807E-09  1.357182E-08 -1.357355E-08
        15   7  2.449817E-06  2.449807E-06  1.001286E+02  1.237164E-09 -1.974033E-08  1.973934E-08
        15   8  2.393579E-06  2.393108E-06  1.001286E+02  3.032089E-09  1.697898E-08  8.253176E-09
        16   1  2.417541E-06  2.417541E-06  1.001286E+02  6.815538E-11 -7.823290E-10 -7.835427E-10
        16   2  2.417589E-06  2.418021E-06  1.001286E+02 -7.574192E-10  3.360775E-10  4.707378E-09
        16   3  2.418061E-06  2.417639E-06  1.001286E+02 -7.596546E-10  4.706147E-09  3.371954E-10
        16   4  2.423534E-06  2.423524E-06  1.001286E+02 -1.377522E-09  4.427634E-09  4.425051E-09
        16   5  2.426450E-06  2.426440E-06  1.001286E+02 -4.315759E-09 -1.357479E-08 -1.357303E-08
        16   6  2.393057E-06  2.393528E-06  1.001286E+02 -3.031992E-09  8.256464E-09 -1.697786E-08
        16   7  2.393587E-06  2.393116E-06  1.001286E+02 -3.033708E-09 -1.697748E-08  8.254655E-09
        16   8  2.449805E-06  2.449805E-06  1.001286E+02 -1.236779E-09  1.973813E-08  1.974142E-08
        17   1  2.381742E-06  2.381742E-06  1.001286E+02 -5.323273E-09  1.824761E-08  1.824687E-08
        17   2  2.407436E-06  2.414378E-06  1.001286E+02 -3.701633E-09  1.232405E-08 -5.058517E-09
        17   3  2.414383E-06  2.407431E-06  1.001286E+02 -3.698502E-09 -5.058429E-09  1.232200E-08
        17   4  2.399803E-06  2.399814E-06  1.001286E+02 -2.542965E-09 -5.618612E-09 -5.617676E-09
        17   5  2.345265E-06  2.345265E-06  1.001286E+02  1.809008E-08  5.261703E-08  5.261691E-08
        17   6  2.457904E-06  2.459783E-06  1.001286E+02  1.876237E-08 -6.212382E-08  4.172956E-08
        17   7  2.459755E-06  2.457877E-06  1.001286E+02  1.876280E-08  4.173021E-08 -6.212146E-08
        17   8  2.383262E-06  2.383272E-06  1.001286E+02  1.598797E-08 -3.885248E-08 -3.885217E-08
        18   1  2.407388E-06  2.414330E-06  1.001286E+02  3.699750E-09 -1.232304E-08 -5.058424E-09
        18   2  2.381697E-06  2.381707E-06  1.001286E+02  5.325445E-09 -1.824727E-08  1.824471E-08
        18   3  2.399805E-06  2.399805E-06  1.001286E+02  2.541732E-09  5.619899E-09 -5.617367E-09
        18   4  2.414439E-06  2.407477E-06  1.001286E+02  3.701662E-09  5.057220E-09  1.232317E-08
        18   5  2.457875E-06  2.459753E-06  1.001286E+02 -1.875986E-08  6.212084E-08  4.173106E-08
        18   6  2.345256E-06  2.345266E-06  1.001286E+02 -1.809362E-08 -5.261483E-08  5.261936E-08
        18   7  2.383303E-06  2.383313E-06  1.001286E+02 -1.598721E-08  3.885122E-08 -3.885286E-08
        18   8  2.459743E-06  2.457865E-06  1.001286E+02 -1.876196E-08 -4.172954E-08 -6.212150E-08
        19   1  2.414380E-06  2.407418E-06  1.001286E+02  3.702440E-09 -5.058542E-09 -1.232479E-08
        19   2  2.399817E-06  2.399807E-06  1.001286E+02  2.546162E-09 -5.618073E-09  5.620313E-09
        19   3  2.381713E-06  2.381703E-06  1.001286E+02  5.323412E-09  1.824511E-08 -1.824421E-08
        19   4  2.407419E-06  2.414371E-06  1.001286E+02  3.701387E-09  1.232597E-08  5.056626E-09
        19   5  2.459781E-06  2.457912E-06  1.001286E+02 -1.875975E-08  4.173031E-08  6.211989E-08
        19   6  2.383275E-06  2.383265E-06  1.001286E+02 -1.598696E-08 -3.885215E-08  3.885133E-08
        19   7  2.345299E-06  2.345299E-06  1.001286E+02 -1.809597E-08  5.261774E-08 -5.261693E-08
        19   8  2.457875E-06  2.459743E-06  1.001286E+02 -1.876419E-08 -6.212241E-08 -4.172706E-08
        20   1  2.399816E-06  2.399806E-06  1.001286E+02 -2.543045E-09  5.619184E-09  5.620460E-09
        20   2  2.414383E-06  2.407421E-06  1.001286E+02 -3.703222E-09  5.056450E-09 -1.232321E-08
        20   3  2.407430E-06  2.414392E-06  1.001286E+02 -3.698274E-09 -1.232445E-08  5.056503E-09
        20   4  2.381708E-06  2.381708E-06  1.001286E+02 -5.324595E-09 -1.824753E-08 -1.824679E-08
        20   5  2.383267E-06  2.383267E-06  1.001286E+02  1.598418E-08  3.885163E-08  3.884998E-08
        20   6  2.459753E-06  2.457865E-06  1.001286E+02  1.876240E-08 -4.172949E-08  6.211927E-08
        20   7  2.457862E-06  2.459741E-06  1.001286E+02  1.876368E-08  6.212022E-08 -4.172724E-08
        20   8  2.345260E-06  2.345250E-06  1.001286E+02  1.809476E-08 -5.261481E-08 -5.261722E-08
        21   1  2.482457E-06  2.482467E-06  1.001286E+02 -1.169553E-08 -2.447935E-08 -2.447960E-08