
 displacements (vx,vy,vz) for set NALL and time  0.1000000E+01

         1  4.239666E-01  0.000000E+00  0.000000E+00
         2  4.239666E-01  5.443000E+05  7.901806E+02
         3  5.168845E-02  0.000000E+00  0.000000E+00
         4  1.886758E-01  5.404143E+05  8.126106E+02
         5  1.886758E-01  0.000000E+00  0.000000E+00
         6  4.239666E-01  5.400000E+05  8.087676E+02
         7  4.239666E-01  0.000000E+00  0.000000E+00
         8  3.722781E-01  0.000000E+00  0.000000E+00
         9  3.722781E-01  5.425608E+05  7.901821E+02
        10  3.722781E-01  0.000000E+00  0.000000E+00
        11  3.722781E-01  5.406431E+05  8.087676E+02
        12  2.352908E-01  0.000000E+00  0.000000E+00
        13 -1.369873E-01  0.000000E+00  0.000000E+00

 temperatures for set NALL and time  0.1000000E+01

         1  0.000000E+00
         2  8.190000E+02
         3  0.000000E+00
         4  8.190066E+02
         5  0.000000E+00
         6  8.190307E+02
         7  0.000000E+00
         8  0.000000E+00
         9  8.192540E+02
        10  0.000000E+00
        11  8.190037E+02
        12  0.000000E+00
        13  0.000000E+00
