
 displacements (vx,vy,vz) for set NALL and time  0.1000000E+01

         1  2.800941E-01  0.000000E+00  0.000000E+00
         2  2.800941E-01  3.000000E-01  5.500000E+02
         3  2.800941E-01  0.000000E+00  0.000000E+00
         4  2.800941E-01  2.755676E-01  5.500000E+02
         5  1.353910E-01  0.000000E+00  0.000000E+00
         6  1.353910E-01  2.642290E-01  5.500000E+02
         7  1.353910E-01  0.000000E+00  0.000000E+00
         8  1.353910E-01  1.800000E-01  5.500000E+02
         9  1.353910E-01  0.000000E+00  0.000000E+00
        10  1.447032E-01  0.000000E+00  0.000000E+00
        11  1.447032E-01  2.673141E-01  5.500000E+02
        12  1.447031E-01  0.000000E+00  0.000000E+00
        13  1.447031E-01  1.000000E-01  5.500000E+02
        14  1.447031E-01  0.000000E+00  0.000000E+00

 temperatures for set NALL and time  0.1000000E+01

         1  0.000000E+00
         2  5.500000E+02
         3  0.000000E+00
         4  5.500000E+02
         5  0.000000E+00
         6  5.500000E+02
         7  0.000000E+00
         8  5.500000E+02
         9  0.000000E+00
        10  0.000000E+00
        11  5.500000E+02
        12  0.000000E+00
        13  5.500000E+02
        14  0.000000E+00
