
 displacements (vx,vy,vz) for set NALL and time  0.1000000E+01

         1  1.606848E-04  0.000000E+00  0.000000E+00
         2  1.606848E-04  3.000000E-01  5.500000E+02
         3  1.606848E-04  0.000000E+00  0.000000E+00
         4  1.606848E-04  1.744943E-01  5.500000E+02
         5  1.606848E-04  0.000000E+00  0.000000E+00
         6  2.499362E-04  1.514565E-01  5.500000E+02
         7  2.499362E-04  0.000000E+00  0.000000E+00
         8  2.499362E-04  8.000000E-02  5.500000E+02
         9  2.499362E-04  0.000000E+00  0.000000E+00
        10  8.925134E-05  0.000000E+00  0.000000E+00
        11  8.925134E-05  2.000000E-01  5.500000E+02
        12  8.925134E-05  0.000000E+00  0.000000E+00
        13  8.925134E-05  1.590193E-01  5.500000E+02
        14  8.925134E-05  0.000000E+00  0.000000E+00

 temperatures for set NALL and time  0.1000000E+01

         1  0.000000E+00
         2  5.500000E+02
         3  0.000000E+00
         4  5.500000E+02
         5  0.000000E+00
         6  5.500000E+02
         7  0.000000E+00
         8  5.500000E+02
         9  0.000000E+00
        10  0.000000E+00
        11  5.500000E+02
        12  0.000000E+00
        13  5.500000E+02
        14  0.000000E+00
