
 displacements (vx,vy,vz) for set NALL and time  0.1000000E+01

         1  1.850128E-01  0.000000E+00  0.000000E+00
         2  1.850128E-01  3.000000E-01  5.500000E+02
         3  1.850128E-01  0.000000E+00  0.000000E+00
         4  1.850128E-01  2.899056E-01  5.500000E+02
         5  5.799597E-02  0.000000E+00  0.000000E+00
         6  5.799597E-02  2.608028E-01  5.500000E+02
         7  5.799597E-02  0.000000E+00  0.000000E+00
         8  5.799597E-02  2.500000E-01  5.500000E+02
         9  5.799597E-02  0.000000E+00  0.000000E+00
        10  1.270169E-01  0.000000E+00  0.000000E+00
        11  1.270169E-01  2.597465E-01  5.500000E+02
        12  1.270169E-01  0.000000E+00  0.000000E+00
        13  1.270169E-01  1.900000E-01  5.500000E+02
        14  1.270169E-01  0.000000E+00  0.000000E+00

 temperatures for set NALL and time  0.1000000E+01

         1  0.000000E+00
         2  5.500000E+02
         3  0.000000E+00
         4  5.500000E+02
         5  0.000000E+00
         6  5.500000E+02
         7  0.000000E+00
         8  5.500000E+02
         9  0.000000E+00
        10  0.000000E+00
        11  5.500000E+02
        12  0.000000E+00
        13  5.500000E+02
        14  0.000000E+00
