
 displacements (vx,vy,vz) for set GLOBAL and time  0.1000000E+01

        10  0.000000E+00  0.000000E+00  0.000000E+00
        11  1.103448E-07  2.175761E-21 -1.183199E-20
        12  2.206897E-07  0.000000E+00  0.000000E+00
        13  2.206897E-07  1.103448E-07  9.817600E-21
        14  2.206897E-07  2.206897E-07  2.551662E-20
        15  1.103448E-07  2.206897E-07  1.714911E-20
        16  2.758482E-20  2.206897E-07  0.000000E+00
        17  1.754387E-20  1.103448E-07 -3.824883E-21
        18  1.103448E-07  1.103448E-07  2.878130E-21
        19  5.517241E-08  1.869598E-21 -1.057385E-20
        20  1.030451E-20  5.517241E-08 -6.056616E-21
        21  5.517241E-08  5.517241E-08 -7.461996E-21
        22  1.655172E-07  1.066933E-22 -8.720750E-21
        23  1.103448E-07  5.517241E-08 -4.998652E-21
        24  2.206897E-07  5.517241E-08  3.209461E-21
        25  1.655172E-07  5.517241E-08 -1.787685E-21
        26  2.206897E-07  1.655172E-07  1.717643E-20
        27  1.655172E-07  1.103448E-07  5.813425E-21
        28  1.655172E-07  2.206897E-07  2.132154E-20
        29  1.655172E-07  1.655172E-07  1.349609E-20
        30  5.517241E-08  2.206897E-07  1.143494E-20
        31  1.103448E-07  1.655172E-07  9.984897E-21
        32  2.268734E-20  1.655172E-07  5.070330E-22
        33  5.517241E-08  1.655172E-07  6.148830E-21
        34  5.517241E-08  1.103448E-07 -6.691891E-22
        35  6.345302E-21  1.263980E-22 -1.724138E-07
        36  1.103448E-07 -5.183987E-21 -1.724138E-07
        37  2.206897E-07 -9.425531E-21 -1.724138E-07
        38  2.206897E-07  1.103448E-07 -1.724138E-07
        39  2.206897E-07  2.206897E-07 -1.724138E-07
        40  1.103448E-07  2.206897E-07 -1.724138E-07
        41  2.096605E-20  2.206897E-07 -1.724138E-07
        42  1.419808E-20  1.103448E-07 -1.724138E-07
        43  1.103448E-07  1.103448E-07 -1.724138E-07
        44  5.668773E-21 -5.992924E-21 -3.448276E-07
        45  1.103448E-07 -1.239985E-20 -3.448276E-07
        46  2.206897E-07 -1.905465E-20 -3.448276E-07
        47  2.206897E-07  1.103448E-07 -3.448276E-07
        48  2.206897E-07  2.206897E-07 -3.448276E-07
        49  1.103448E-07  2.206897E-07 -3.448276E-07
        50  1.694066E-20  2.206897E-07 -3.448276E-07
        51  1.137911E-20  1.103448E-07 -3.448276E-07
        52  1.103448E-07  1.103448E-07 -3.448276E-07
        53  5.517241E-08 -9.580406E-21 -3.448276E-07
        54  7.921082E-21  5.517241E-08 -3.448276E-07
        55  5.517241E-08  5.517241E-08 -3.448276E-07
        56  1.655172E-07 -1.581569E-20 -3.448276E-07
        57  1.103448E-07  5.517241E-08 -3.448276E-07
        58  2.206897E-07  5.517241E-08 -3.448276E-07
        59  1.655172E-07  5.517241E-08 -3.448276E-07
        60  2.206897E-07  1.655172E-07 -3.448276E-07
        61  1.655172E-07  1.103448E-07 -3.448276E-07
        62  1.655172E-07  2.206897E-07 -3.448276E-07
        63  1.655172E-07  1.655172E-07 -3.448276E-07
        64  5.517241E-08  2.206897E-07 -3.448276E-07
        65  1.103448E-07  1.655172E-07 -3.448276E-07
        66  1.436978E-20  1.655172E-07 -3.448276E-07
        67  5.517241E-08  1.655172E-07 -3.448276E-07
        68  5.517241E-08  1.103448E-07 -3.448276E-07
        69  1.952146E-21 -1.394606E-20 -5.172414E-07
        70  1.103448E-07 -2.027161E-20 -5.172414E-07
        71  2.206897E-07 -2.620095E-20 -5.172414E-07
        72  2.206897E-07  1.103448E-07 -5.172414E-07
        73  2.206897E-07  2.206897E-07 -5.172414E-07
        74  1.103448E-07  2.206897E-07 -5.172414E-07
        75  1.379241E-20  2.206897E-07 -5.172414E-07
        76  8.140839E-21  1.103448E-07 -5.172414E-07
        77  1.103448E-07  1.103448E-07 -5.172414E-07
        78 -1.139748E-21 -2.181763E-20 -6.896552E-07
        79  1.103448E-07 -2.817294E-20 -6.896552E-07
        80  2.206897E-07 -3.383936E-20 -6.896552E-07
        81  2.206897E-07  1.103448E-07 -6.896552E-07
        82  2.206897E-07  2.206897E-07 -6.896552E-07
        83  1.103448E-07  2.206897E-07 -6.896552E-07
        84  1.028351E-20  2.206897E-07 -6.896552E-07
        85  4.813364E-21  1.103448E-07 -6.896552E-07
        86  1.103448E-07  1.103448E-07 -6.896552E-07
        87  5.517241E-08 -2.487043E-20 -6.896552E-07
        88  1.991024E-21  5.517241E-08 -6.896552E-07
        89  5.517241E-08  5.517241E-08 -6.896552E-07
        90  1.655172E-07 -3.120510E-20 -6.896552E-07
        91  1.103448E-07  5.517241E-08 -6.896552E-07
        92  2.206897E-07  5.517241E-08 -6.896552E-07
        93  1.655172E-07  5.517241E-08 -6.896552E-07
        94  2.206897E-07  1.655172E-07 -6.896552E-07
        95  1.655172E-07  1.103448E-07 -6.896552E-07
        96  1.655172E-07  2.206897E-07 -6.896552E-07
        97  1.655172E-07  1.655172E-07 -6.896552E-07
        98  5.517241E-08  2.206897E-07 -6.896552E-07
        99  1.103448E-07  1.655172E-07 -6.896552E-07
       100  7.643149E-21  1.655172E-07 -6.896552E-07
       101  5.517241E-08  1.655172E-07 -6.896552E-07
       102  5.517241E-08  1.103448E-07 -6.896552E-07
       103 -4.180039E-21 -2.958474E-20 -8.620690E-07
       104  1.103448E-07 -3.588889E-20 -8.620690E-07
       105  2.206897E-07 -4.214651E-20 -8.620690E-07
       106  2.206897E-07  1.103448E-07 -8.620690E-07
       107  2.206897E-07  2.206897E-07 -8.620690E-07
       108  1.103448E-07  2.206897E-07 -8.620690E-07
       109  7.369352E-21  2.206897E-07 -8.620690E-07
       110  1.732245E-21  1.103448E-07 -8.620690E-07
       111  1.103448E-07  1.103448E-07 -8.620690E-07
       112 -6.116173E-21 -3.721246E-20 -1.034483E-06
       113  1.103448E-07 -4.431124E-20 -1.034483E-06
       114  2.206897E-07 -5.161607E-20 -1.034483E-06
       115  2.206897E-07  1.103448E-07 -1.034483E-06
       116  2.206897E-07  2.206897E-07 -1.034483E-06
       117  1.103448E-07  2.206897E-07 -1.034483E-06
       118  4.556111E-21  2.206897E-07 -1.034483E-06
       119 -1.308393E-21  1.103448E-07 -1.034483E-06
       120  1.103448E-07  1.103448E-07 -1.034483E-06
       121  5.517241E-08 -4.087310E-20 -1.034483E-06
       122 -3.388132E-21  5.517241E-08 -1.034483E-06
       123  5.517241E-08  5.517241E-08 -1.034483E-06
       124  1.655172E-07 -4.775810E-20 -1.034483E-06
       125  1.103448E-07  5.517241E-08 -1.034483E-06
       126  2.206897E-07  5.517241E-08 -1.034483E-06
       127  1.655172E-07  5.517241E-08 -1.034483E-06
       128  2.206897E-07  1.655172E-07 -1.034483E-06
       129  1.655172E-07  1.103448E-07 -1.034483E-06
       130  1.655172E-07  2.206897E-07 -1.034483E-06
       131  1.655172E-07  1.655172E-07 -1.034483E-06
       132  5.517241E-08  2.206897E-07 -1.034483E-06
       133  1.103448E-07  1.655172E-07 -1.034483E-06
       134  1.551791E-21  1.655172E-07 -1.034483E-06
       135  5.517241E-08  1.655172E-07 -1.034483E-06
       136  5.517241E-08  1.103448E-07 -1.034483E-06

 forces (fx,fy,fz) for set GLOBAL and time  0.1000000E+01

        10 -9.562902E-15 -6.701828E-15  1.418310E-14
        11 -6.647840E-17 -7.809792E-17  9.020562E-16
        12 -9.812227E-17  7.266330E-15  9.617307E-15
        13  8.511704E-16 -4.905592E-16  7.494005E-16
        14  5.173685E-16  5.245930E-16  1.082467E-15
        15 -8.571272E-16  3.328678E-16  2.220446E-16
        16  3.993513E-16  2.069415E-16 -1.126876E-14
        17  1.141863E-16  9.303087E-17 -6.938894E-17
        18  7.767105E-16 -1.173204E-15 -2.053913E-15
        19  1.847939E-16 -8.564746E-17  8.333333E-01
        20  1.952742E-16  8.502199E-17  8.333333E-01
        21 -1.142425E-16  4.826986E-16  1.666667E+00
        22 -5.049497E-16  9.115642E-17  8.333333E-01
        23  5.882812E-16 -2.283820E-17  1.666667E+00
        24  6.899475E-16  6.342157E-17  8.333333E-01
        25  6.719657E-16 -4.123952E-16  1.666667E+00
        26  1.409818E-15 -2.657914E-16  8.333333E-01
        27 -9.230934E-16  1.360356E-15  1.666667E+00
        28  6.050628E-16  3.272357E-16  8.333333E-01
        29  2.499446E-17  1.858601E-15  1.666667E+00
        30  2.682108E-16  1.087900E-15  8.333333E-01
        31  2.278276E-15 -1.051684E-15  1.666667E+00
        32  3.318301E-16  2.061411E-16  8.333333E-01
        33 -1.480583E-15  3.924702E-16  1.666667E+00
        34  2.677420E-16  1.424864E-16  1.666667E+00
        35 -4.081601E-16 -4.545625E-16  4.024558E-16
        36  1.787103E-16 -3.259795E-16 -2.067790E-15
        37 -6.033468E-17 -2.074379E-16  1.249001E-15
        38  2.345480E-15  5.887914E-16  1.915135E-15
        39 -5.549390E-16  1.534466E-15 -5.551115E-16
        40  8.163537E-16  6.490276E-16  4.996004E-16
        41 -7.863322E-16  1.275620E-15 -9.436896E-16
        42 -6.327034E-16 -1.149730E-15 -7.077672E-16
        43 -1.375587E-15 -5.580693E-16 -2.289835E-15
        44  9.489142E-17 -6.707023E-17 -7.063794E-15
        45 -6.330691E-16 -2.422400E-17  1.026956E-15
        46 -7.039014E-16 -5.973305E-17 -1.554312E-15
        47 -1.651562E-16 -1.147856E-15 -2.234324E-15
        48 -1.297922E-15 -1.833652E-15  1.970646E-15
        49 -2.017443E-15  9.758016E-16  4.468648E-15
        50  1.716067E-16 -9.577258E-16  1.776357E-15
        51 -1.982857E-16  7.226460E-16 -6.522560E-16
        52  3.498179E-15  1.474388E-15  8.701373E-15
        53  7.050789E-16  5.849164E-16  1.665335E-16
        54  1.643945E-16  3.767839E-16 -2.026157E-15
        55  1.583721E-15  4.847624E-16 -2.914335E-16
        56  6.183731E-16 -1.403681E-15 -2.109424E-15
        57  4.278777E-17  3.029651E-16 -3.885781E-16
        58 -1.696934E-15 -1.567643E-15  8.153200E-16
        59 -3.023628E-15 -2.470477E-15 -1.887379E-15
        60 -4.193217E-16  1.399049E-15 -1.346145E-15
        61 -4.321705E-15 -2.514061E-15  4.163336E-17
        62 -3.679137E-16 -1.773912E-16 -7.494005E-16
        63  2.789073E-15  1.747515E-15  1.804112E-16
        64 -2.064294E-16  1.168010E-15  2.775558E-16
        65  3.810973E-15  1.528694E-16  3.094747E-15
        66  3.880201E-17 -8.534288E-16 -6.661338E-16
        67  1.663668E-16  2.267016E-15  2.498002E-15
        68  8.624730E-16 -1.483010E-15  8.881784E-16
        69 -9.572349E-17  8.642558E-18 -8.326673E-16
        70 -4.542272E-16 -3.631525E-17  1.776357E-15
        71  4.863535E-16  9.487303E-16 -2.331468E-15
        72 -2.381496E-15 -1.371623E-15  4.940492E-15
        73  2.150920E-15  2.224369E-16 -2.275957E-15
        74  6.606905E-16  8.743688E-16 -5.495604E-15
        75 -7.370879E-16  1.771701E-15  2.498002E-15
        76  3.159441E-16 -8.295152E-16  1.526557E-16
        77  2.546781E-15 -1.001233E-15 -1.501577E-14
        78  2.490134E-16 -5.895341E-16 -5.967449E-15
        79  2.293061E-15 -4.539858E-16  7.188694E-15
        80 -2.217948E-16  1.941269E-16 -5.606626E-15
        81 -1.606038E-15 -2.969214E-16  4.093947E-15
        82 -1.904574E-16  1.041531E-15  8.326673E-16
        83  6.230238E-16  8.932018E-16 -7.494005E-16
        84 -4.556096E-16 -6.207630E-17  3.302913E-15
        85  5.414889E-16  3.939663E-18  2.872702E-15
        86 -2.659497E-15  7.306716E-16  1.137979E-14
        87  9.326556E-16 -7.302837E-16 -1.613293E-15
        88 -1.311293E-15  2.478033E-15 -2.081668E-16
        89  1.390383E-15  2.555423E-15  5.329071E-15
        90 -4.287088E-16 -1.110317E-15 -2.959438E-15
        91 -2.498141E-15  1.581382E-15 -1.042222E-14
        92  1.191560E-15  2.521755E-15  8.673617E-17
        93 -3.922177E-16 -1.192531E-15  2.123302E-15
        94 -2.107868E-15 -9.553472E-16  1.887379E-15
        95  2.968196E-15  2.452789E-15 -4.381912E-15
        96 -2.430390E-15 -2.232415E-15 -1.929013E-15
        97  3.683372E-15  1.311448E-16  4.191092E-15
        98 -1.819823E-15 -7.880172E-16  1.165734E-15
        99 -7.533211E-16 -2.346005E-15 -6.439294E-15
       100 -9.057135E-16  3.644744E-16 -4.302114E-16
       101 -3.533739E-15  2.222647E-15 -3.747003E-16
       102 -2.561472E-16 -1.965001E-16  1.387779E-17
       103 -3.308073E-16  8.762323E-17  3.996803E-15
       104  9.236360E-16 -2.261739E-16 -5.551115E-17
       105  9.196677E-16 -1.207577E-15 -1.360023E-15
       106  2.991231E-16  1.222458E-15 -5.787038E-15
       107  1.347979E-15 -7.719791E-16 -5.551115E-16
       108 -8.625226E-17 -3.313060E-17  2.331468E-15
       109 -1.483695E-15  5.835990E-16 -3.053113E-15
       110  1.427303E-16 -7.760188E-16 -1.718070E-14
       111  1.503925E-15 -4.052714E-15 -1.634803E-14
       112  1.500938E-16 -2.346183E-16  4.163336E-17
       113  1.683055E-16 -1.766071E-15  3.039236E-15
       114 -9.514491E-16  9.558207E-16 -4.461709E-15
       115 -1.076353E-17 -1.056193E-16  5.495604E-15
       116  2.165596E-16  5.730105E-16  2.997602E-15
       117  7.762700E-16  1.597143E-16 -2.775558E-15
       118 -2.264546E-16  3.262857E-16  3.719247E-15
       119 -1.406858E-15 -1.942189E-16  5.696832E-15
       120 -2.212136E-15  5.195428E-16  1.670192E-14
       121  2.104684E-17 -1.902880E-15 -8.333333E-01
       122  5.608264E-16  4.792211E-16 -8.333333E-01
       123  1.398786E-15  3.219470E-16 -1.666667E+00
       124  2.480483E-15  1.844604E-15 -8.333333E-01
       125  3.508246E-16  6.115449E-16 -1.666667E+00
       126 -5.429849E-17 -1.247890E-15 -8.333333E-01
       127  1.261824E-15 -2.180014E-15 -1.666667E+00
       128 -2.327371E-16 -1.621333E-15 -8.333333E-01
       129  4.351199E-16 -1.036025E-15 -1.666667E+00
       130 -1.212708E-15  4.646585E-16 -8.333333E-01
       131  2.184271E-15 -3.477089E-15 -1.666667E+00
       132  9.505151E-17  3.490823E-16 -8.333333E-01
       133  1.506704E-15  1.565205E-15 -1.666667E+00
       134 -5.541686E-16  1.252609E-15 -8.333333E-01
       135 -1.220028E-15 -4.122482E-16 -1.666667E+00
       136  2.859994E-15  4.361929E-16 -1.666667E+00

 stresses (elem, integ.pnt.,sxx,syy,szz,sxy,sxz,syz) for set OUT_CONT and time  0.1000000E+01

        17   1  1.154632E-13  3.481659E-13 -2.000000E+01  2.017360E-13  4.593516E-14 -1.414579E-13
        17   2  1.172396E-13  1.296740E-13 -2.000000E+01  1.003202E-13 -6.402816E-15  1.623931E-13
        17   3  8.171241E-14  1.350031E-13 -2.000000E+01  7.230514E-14 -1.630674E-14  1.366603E-14
        17   4 -3.907985E-14 -1.243450E-14 -2.000000E+01  2.197882E-14  4.888512E-15 -7.807622E-14
        17   5  3.197442E-14 -5.151435E-14 -2.000000E+01 -1.705658E-14 -9.813370E-15  7.627244E-14
        17   6 -1.065814E-14 -7.815970E-14 -2.000000E+01 -2.723341E-14 -1.293911E-14 -6.833013E-15
        17   7 -7.638334E-14 -1.101341E-13 -2.000000E+01 -4.335684E-14 -3.575833E-14 -4.187038E-14
        17   8  6.750156E-14  2.309264E-14 -2.000000E+01 -1.889002E-14 -1.656774E-14 -3.212970E-14
        17   9  1.598721E-14 -2.664535E-14 -2.000000E+01 -1.345098E-14 -1.044378E-14 -5.001184E-14
        18   1  4.796163E-13  1.190159E-13 -2.000000E+01  1.918738E-13 -1.160526E-13  3.023972E-14
        18   2  2.593481E-13  8.881784E-14 -2.000000E+01  8.155782E-14  2.300736E-14 -1.715522E-14
        18   3  1.616485E-13  1.207923E-13 -2.000000E+01  1.064814E-13  1.362259E-13  2.297055E-14
        18   4  1.243450E-14 -5.329071E-14 -2.000000E+01  2.718918E-14 -6.419211E-14 -3.561890E-15
        18   5 -6.039613E-14 -2.309264E-14 -2.000000E+01 -1.242776E-14 -1.686371E-14 -3.001232E-15
        18   6 -7.638334E-14  1.243450E-14 -2.000000E+01 -3.559377E-15  5.117491E-14  1.373872E-14
        18   7 -1.296740E-13 -6.927792E-14 -2.000000E+01 -3.942345E-14 -3.183530E-14 -4.070731E-14
        18   8 -5.684342E-14  1.776357E-14 -2.000000E+01 -1.003044E-14 -7.080165E-14 -4.361498E-16
        18   9  1.421085E-14  6.750156E-14 -2.000000E+01 -1.729960E-14 -4.855801E-14  2.326132E-15
        19   1  1.723066E-13  3.552714E-14 -2.000000E+01 -5.232137E-15 -3.492878E-14 -2.326132E-14
        19   2  1.172396E-13 -2.486900E-14 -2.000000E+01  4.286515E-14  9.628052E-14 -5.451872E-14
        19   3  1.190159E-13  6.927792E-14 -2.000000E+01  4.645379E-14 -4.404931E-14  1.919059E-14
        19   4  1.421085E-14 -1.776357E-15 -2.000000E+01 -1.148004E-14 -2.167292E-14  4.361498E-15
        19   5 -2.486900E-14 -4.796163E-14 -2.000000E+01  1.985006E-14  4.608109E-14 -2.995165E-14
        19   6 -2.131628E-14  0.000000E+00 -2.000000E+01  2.341195E-14 -8.098219E-15  2.435170E-14
        19   7 -3.197442E-14  1.776357E-14 -2.000000E+01 -9.240792E-15 -7.120142E-15  1.933597E-14
        19   8 -6.217249E-14 -2.486900E-14 -2.000000E+01  5.613890E-15 -5.960714E-15 -1.264834E-14
        19   9 -4.618528E-14  1.776357E-15 -2.000000E+01  7.067723E-15  1.948136E-14  2.471515E-14
        20   1  3.552714E-15 -1.918465E-13 -2.000000E+01  1.107626E-14  9.159145E-15 -1.604546E-13
        20   2  6.394885E-14 -5.684342E-14 -2.000000E+01  2.198464E-14  1.700984E-14 -1.149098E-15
        20   3  8.171241E-14  7.638334E-14 -2.000000E+01  5.752125E-14 -8.141463E-15  4.737393E-14
        20   4  0.000000E+00 -9.947598E-14 -2.000000E+01  2.899017E-14  1.017683E-14 -8.848137E-14
        20   5  2.309264E-14 -4.085621E-14 -2.000000E+01  2.733205E-14  1.425837E-14 -8.631385E-15
        20   6  3.552714E-14  4.440892E-14 -2.000000E+01  5.175644E-14  1.306287E-14  3.532813E-14
        20   7 -2.664535E-14 -2.842171E-14 -2.000000E+01  1.464708E-14  3.925348E-15 -2.707492E-14
        20   8 -3.907985E-14 -4.263256E-14 -2.000000E+01  1.744599E-15  8.868379E-15 -2.907665E-14
        20   9 -3.019807E-14 -1.776357E-15 -2.000000E+01  1.511986E-14  2.791359E-14  1.424756E-14
        21   1 -3.375078E-14  0.000000E+00 -2.000000E+01  3.455797E-14 -9.587017E-15  1.511986E-14
        21   2 -3.730349E-14  1.065814E-14 -2.000000E+01  7.010123E-14  7.841246E-15  8.461306E-14
        21   3 -3.907985E-14 -3.907985E-14 -2.000000E+01  3.860972E-14  7.705954E-15 -1.267742E-13
        21   4 -1.776357E-15  4.085621E-14 -2.000000E+01 -9.981738E-15  8.071876E-15 -6.666008E-15
        21   5 -1.243450E-14  5.861978E-14 -2.000000E+01  3.307036E-15  1.799522E-14  5.091657E-14
        21   6  1.776357E-14  5.506706E-14 -2.000000E+01 -8.759774E-15  2.327748E-14 -6.743621E-14
        21   7 -1.243450E-14 -7.105427E-15 -2.000000E+01 -1.435349E-14  2.712123E-14 -4.216115E-14
        21   8 -3.552714E-14  8.881784E-15 -2.000000E+01 -2.071786E-14  2.760779E-14  5.815330E-16
        21   9  4.085621E-14  6.217249E-14 -2.000000E+01 -1.372968E-14  3.803032E-14 -1.919059E-14
        22   1 -4.618528E-14 -3.019807E-14 -2.000000E+01  6.978396E-14 -7.631119E-14 -5.009885E-15
        22   2 -9.059420E-14 -3.197442E-14 -2.000000E+01  4.434189E-14 -1.248794E-14 -3.993492E-16
        22   3 -7.993606E-14  1.598721E-14 -2.000000E+01  4.230653E-14  1.306143E-13 -2.276721E-16
        22   4  4.085621E-14  8.881784E-15 -2.000000E+01  5.815330E-15 -1.976131E-14  1.367563E-14
        22   5  3.375078E-14  1.598721E-14 -2.000000E+01 -8.722996E-16  1.257295E-14  5.317300E-15
        22   6  3.197442E-14  3.907985E-14 -2.000000E+01 -7.559929E-15  6.774860E-14 -1.397841E-14
        22   7  1.776357E-14  0.000000E+00 -2.000000E+01 -1.875444E-14  4.548994E-14  2.549976E-14
        22   8  4.440892E-14  8.881784E-15 -2.000000E+01 -1.671907E-14  5.813828E-14  1.860906E-14
        22   9  3.907985E-14  1.776357E-14 -2.000000E+01 -2.340670E-14  1.709513E-14 -2.849512E-14
        23   1 -2.664535E-14  1.065814E-14 -2.000000E+01  5.611794E-14 -2.805897E-14 -2.616899E-15
        23   2  3.197442E-14  1.243450E-14 -2.000000E+01  1.730061E-14 -1.032221E-14  3.198432E-15
        23   3 -1.065814E-14  2.486900E-14 -2.000000E+01  1.395679E-14 -6.687630E-15  2.907665E-16
        23   4 -2.664535E-14  1.776357E-14 -2.000000E+01  2.616899E-14 -1.178685E-14  1.422594E-14
        23   5 -5.329071E-15 -5.329071E-15 -2.000000E+01  2.035366E-15  4.028980E-15  4.469605E-16
        23   6  5.329071E-15  2.131628E-14 -2.000000E+01  5.815330E-16 -7.807453E-15  8.701374E-15
        23   7  1.953993E-14  5.151435E-14 -2.000000E+01  8.722996E-16  2.471515E-15  2.762282E-14
        23   8 -1.421085E-14 -1.598721E-14 -2.000000E+01 -1.337526E-14  2.805897E-14  2.907665E-16
        23   9  3.019807E-14  3.019807E-14 -2.000000E+01 -1.613754E-14 -5.233797E-15  2.384285E-14
        24   1  1.776357E-15  3.019807E-14 -2.000000E+01  5.253851E-14 -2.675727E-14  2.907665E-16
        24   2  5.506706E-14  1.953993E-14 -2.000000E+01  2.096652E-14  9.280054E-15 -1.337526E-14
        24   3  1.953993E-14  7.993606E-14 -2.000000E+01  1.047973E-14 -1.692391E-14  1.424756E-14
        24   4 -1.776357E-14  7.105427E-15 -2.000000E+01  3.875843E-14 -2.669742E-15 -1.722978E-15
        24   5  1.953993E-14 -7.105427E-15 -2.000000E+01  1.802752E-14  7.861507E-15 -2.155698E-14
        24   6 -1.776357E-15  1.421085E-14 -2.000000E+01  1.163066E-15 -3.220053E-15  6.709251E-15
        24   7 -2.664535E-14  1.776357E-14 -2.000000E+01  1.609740E-14  1.027180E-14  8.432229E-15
        24   8 -2.842171E-14 -8.881784E-15 -2.000000E+01  1.206681E-14 -2.616899E-15 -1.831829E-14
        24   9 -1.065814E-14 -2.131628E-14 -2.000000E+01 -8.577612E-15  3.779965E-15  6.106097E-15
        25   1  1.776357E-14  1.776357E-15 -2.000000E+01 -3.394848E-14  7.600210E-15  2.529669E-14
        25   2 -1.065814E-14 -8.881784E-15 -2.000000E+01  3.886308E-15 -1.406190E-14 -6.382325E-14
        25   3  1.776357E-15 -1.776357E-15 -2.000000E+01  1.246782E-14  4.231853E-15 -5.524564E-14
        25   4 -3.552714E-15 -5.329071E-15 -2.000000E+01 -9.001587E-15  1.520669E-14  2.543666E-14
        25   5 -1.776357E-14  0.000000E+00 -2.000000E+01  3.374163E-15 -2.094529E-14 -4.306904E-14
        25   6 -1.065814E-14  3.552714E-15 -2.000000E+01  1.044342E-14  1.282603E-14 -4.935762E-14
        25   7  3.552714E-15  0.000000E+00 -2.000000E+01  7.681943E-15  3.645092E-14  1.628293E-14
        25   8  1.776357E-15  1.776357E-14 -2.000000E+01 -4.537767E-15 -6.291761E-15 -2.602360E-14
        25   9  7.105427E-15  2.131628E-14 -2.000000E+01 -8.502412E-16  3.196858E-14 -5.408257E-14
        26   1 -1.776357E-14  3.907985E-14 -2.000000E+01 -3.340344E-14  3.073492E-14 -6.542247E-15
        26   2 -4.263256E-14  1.776357E-15 -2.000000E+01  5.901504E-15 -5.857854E-14  1.453833E-16
        26   3 -3.730349E-14 -2.486900E-14 -2.000000E+01 -2.497719E-15 -6.078112E-14 -1.395679E-14
        26   4 -1.065814E-14  1.243450E-14 -2.000000E+01 -1.772086E-14  3.743078E-14  1.453833E-16
        26   5 -1.776357E-14  5.329071E-15 -2.000000E+01 -4.127522E-15 -1.286567E-14 -1.961127E-14
        26   6 -3.019807E-14 -2.131628E-14 -2.000000E+01  1.178967E-15 -4.208845E-14 -1.570139E-14
        26   7  3.552714E-15  0.000000E+00 -2.000000E+01 -3.882937E-15  3.549534E-14  2.238902E-14
        26   8 -3.552714E-15  7.105427E-15 -2.000000E+01 -1.909700E-14  2.456977E-14 -4.114346E-14
        26   9 -1.953993E-14 -3.552714E-15 -2.000000E+01  1.838190E-15 -2.849512E-14 -6.978396E-15
        27   1 -3.375078E-14  2.486900E-14 -2.000000E+01 -6.078653E-15  3.498161E-16 -2.035366E-15
        27   2 -2.842171E-14  1.065814E-14 -2.000000E+01  7.420759E-15 -1.263743E-14  3.431045E-14
        27   3 -6.927792E-14 -3.375078E-14 -2.000000E+01  6.218008E-15  4.350584E-15 -7.559929E-15
        27   4 -3.552714E-14  5.329071E-15 -2.000000E+01 -6.108368E-15 -1.818372E-14 -1.562870E-14
        27   5 -1.776357E-15  1.598721E-14 -2.000000E+01  1.053801E-14 -2.864591E-14  3.239959E-14
        27   6 -2.842171E-14 -8.881784E-15 -2.000000E+01  6.976125E-15  1.225544E-14 -1.133989E-14
        27   7 -2.486900E-14  1.953993E-14 -2.000000E+01 -1.479395E-14 -3.617860E-14 -2.500592E-14
        27   8 -1.776357E-15  7.105427E-15 -2.000000E+01  3.720903E-15 -6.033405E-14  4.492343E-14
        27   9  5.329071E-15  2.309264E-14 -2.000000E+01 -6.405950E-16  2.558745E-14 -9.304529E-15
        28   1 -1.776357E-14  1.065814E-14 -2.000000E+01  4.193758E-16  2.704129E-14  5.846818E-14
        28   2 -1.243450E-14 -1.421085E-14 -2.000000E+01 -7.477861E-15  1.264834E-14  4.303914E-15
        28   3 -7.283063E-14 -4.263256E-14 -2.000000E+01  5.693973E-16  2.384285E-14 -8.063270E-16
        28   4 -7.105427E-15 -8.881784E-15 -2.000000E+01  3.693479E-15  2.326132E-15  6.698553E-14
        28   5 -1.243450E-14 -2.486900E-14 -2.000000E+01 -4.070731E-15  2.130946E-14  1.357591E-14
        28   6 -3.197442E-14 -1.953993E-14 -2.000000E+01  2.326132E-15  2.585660E-14 -5.088414E-15
        28   7 -7.105427E-15 -1.421085E-14 -2.000000E+01  6.189265E-15 -2.427900E-14  7.754466E-14
        28   8 -4.440892E-14 -4.973799E-14 -2.000000E+01  4.361498E-16  1.759137E-14  1.759137E-14
        28   9  2.309264E-14  3.375078E-14 -2.000000E+01  2.035366E-15  1.919059E-14 -1.046759E-14
        29   1  1.598721E-14  1.421085E-14 -2.000000E+01 -6.968105E-15  3.246176E-15 -4.390574E-14
        29   2 -1.421085E-14  2.131628E-14 -2.000000E+01 -1.654870E-14 -1.161427E-14 -4.157961E-14
        29   3  3.552714E-15  1.065814E-14 -2.000000E+01 -9.212914E-15  1.684538E-14  2.791359E-14
        29   4 -1.776357E-15  1.776357E-15 -2.000000E+01 -4.414397E-15 -1.724138E-16 -2.847350E-14
        29   5 -3.552714E-15  2.309264E-14 -2.000000E+01 -1.307850E-14 -2.466669E-14 -2.868076E-14
        29   6 -1.598721E-14 -7.105427E-15 -2.000000E+01 -9.153148E-15 -5.330720E-15  2.095681E-14
        29   7  8.881784E-15  1.243450E-14 -2.000000E+01 -4.438334E-15  2.336784E-14 -1.308449E-14
        29   8  1.953993E-14  2.842171E-14 -2.000000E+01 -1.274712E-14 -2.039757E-14 -2.529669E-14
        29   9  1.953993E-14  1.776357E-14 -2.000000E+01 -1.512606E-14 -1.195171E-14  5.233797E-15
        30   1  2.842171E-14  2.842171E-14 -2.000000E+01 -1.860906E-14  3.420898E-14  1.029110E-14
        30   2  8.881784E-15 -1.065814E-14 -2.000000E+01 -1.192143E-14  5.703415E-14  5.924467E-16
        30   3  1.953993E-14  1.776357E-15 -2.000000E+01 -1.831829E-14 -1.160038E-14 -7.532400E-15
        30   4 -3.552714E-15 -1.776357E-15 -2.000000E+01 -1.453833E-14 -1.079564E-15 -2.187235E-16
        30   5  2.486900E-14  1.065814E-14 -2.000000E+01 -2.035366E-15  1.160363E-15 -2.678780E-15
        30   6  1.953993E-14 -5.329071E-15 -2.000000E+01 -1.163066E-14 -2.297055E-14  6.956775E-15
        30   7  2.309264E-14  1.421085E-14 -2.000000E+01 -2.064442E-14 -2.490445E-14 -1.479049E-14
        30   8  3.197442E-14  1.421085E-14 -2.000000E+01 -3.634581E-15 -2.446830E-14 -1.948136E-14
        30   9  4.618528E-14  5.329071E-15 -2.000000E+01 -1.424756E-14 -1.515014E-14  1.337526E-14
        31   1 -2.486900E-14  0.000000E+00 -2.000000E+01 -8.141463E-15  8.577612E-15  6.106097E-15
        31   2 -1.243450E-14 -1.776357E-14 -2.000000E+01 -1.468371E-14  2.326132E-14 -9.304529E-15
        31   3  2.131628E-14  5.329071E-15 -2.000000E+01 -1.831829E-14  9.304529E-15  0.000000E+00
        31   4  0.000000E+00  1.776357E-15 -2.000000E+01 -6.106097E-15  3.124659E-14  3.176810E-15
        31   5  1.953993E-14 -8.881784E-15 -2.000000E+01 -3.489198E-15  1.133449E-14 -1.241946E-14
        31   6  5.329071E-15 -5.329071E-15 -2.000000E+01 -1.424756E-14  2.025152E-14 -9.035384E-15
        31   7  3.197442E-14  5.329071E-15 -2.000000E+01 -3.053048E-15  4.259729E-14 -1.773676E-14
        31   8  3.019807E-14 -3.019807E-14 -2.000000E+01  3.779965E-15 -7.559929E-15 -1.628293E-14
        31   9  5.329071E-15  3.552714E-15 -2.000000E+01 -9.304529E-15  4.419651E-14 -2.151672E-14
        32   1 -4.618528E-14  1.243450E-14 -2.000000E+01  1.130725E-14  1.425139E-14 -8.722996E-16
        32   2  1.598721E-14  4.440892E-14 -2.000000E+01  1.205336E-14  5.787801E-15  4.361498E-15
        32   3 -1.243450E-14 -2.664535E-14 -2.000000E+01 -8.924858E-15  1.507050E-14  1.104913E-14
        32   4 -2.131628E-14  1.776357E-15 -2.000000E+01  1.258945E-14  2.111067E-14  2.347754E-15
        32   5  0.000000E+00 -1.776357E-15 -2.000000E+01  7.559929E-15  1.491259E-14  7.592362E-15
        32   6 -7.105427E-15 -1.065814E-14 -2.000000E+01  5.815330E-16  2.886044E-15 -1.141445E-15
        32   7  1.598721E-14  1.953993E-14 -2.000000E+01  2.525576E-15  2.094024E-14  1.889982E-14
        32   8  1.776357E-15 -1.421085E-14 -2.000000E+01 -2.907665E-15  1.337526E-14  7.559929E-15
        32   9  1.598721E-14  3.019807E-14 -2.000000E+01  5.960714E-15 -1.570139E-14 -9.304529E-15
        33   1  5.151435E-14  4.085621E-14 -2.000000E+01  1.101571E-14  1.834405E-14 -3.489198E-15
        33   2 -2.664535E-14 -2.309264E-14 -2.000000E+01 -7.273883E-15  6.277243E-15 -5.946175E-14
        33   3 -3.197442E-14 -3.552714E-14 -2.000000E+01 -4.689313E-15  3.703040E-14 -7.094703E-14
        33   4  1.776357E-14  8.881784E-15 -2.000000E+01  6.606089E-15  1.383968E-14 -2.159482E-14
        33   5  7.105427E-15  1.776357E-15 -2.000000E+01 -1.839983E-14  3.861541E-14 -5.907938E-14
        33   6  5.329071E-15 -1.776357E-14 -2.000000E+01 -1.040375E-14  2.383478E-14 -7.421815E-14
        33   7  3.552714E-15  2.842171E-14 -2.000000E+01 -1.675075E-14 -3.369578E-15 -4.943031E-15
        33   8  3.552714E-15  1.598721E-14 -2.000000E+01 -4.917913E-14  5.478373E-14 -2.471515E-14
        33   9  2.131628E-14  5.329071E-15 -2.000000E+01 -3.431493E-14  3.822298E-15 -5.408257E-14
        34   1  3.197442E-14  1.953993E-14 -2.000000E+01  5.070633E-15  9.404438E-15  9.304529E-15
        34   2  3.552714E-15 -5.329071E-15 -2.000000E+01 -1.611564E-14  1.990841E-14 -3.765426E-14
        34   3 -1.243450E-14 -1.065814E-14 -2.000000E+01  3.159702E-15 -3.307463E-14 -1.104913E-14
        34   4  1.953993E-14  1.953993E-14 -2.000000E+01  5.647289E-15 -5.675352E-15  7.269163E-16
        34   5  3.375078E-14  8.881784E-15 -2.000000E+01 -4.311464E-15  2.765991E-14 -3.413142E-14
        34   6  1.421085E-14 -7.105427E-15 -2.000000E+01 -9.109112E-15 -5.088414E-16 -9.449912E-16
        34   7 -3.019807E-14  2.486900E-14 -2.000000E+01 -1.823315E-14 -9.849683E-15  0.000000E+00
        34   8  2.842171E-14  3.197442E-14 -2.000000E+01 -1.949042E-14  5.422796E-14 -1.032221E-14
        34   9  4.263256E-14  3.907985E-14 -2.000000E+01 -4.318789E-14  2.500592E-14  2.849512E-14
        35   1 -3.019807E-14  5.329071E-15 -2.000000E+01 -1.398368E-14 -4.307892E-14 -1.555601E-14
        35   2 -3.552714E-15  5.329071E-15 -2.000000E+01  1.030478E-15 -6.732154E-14  5.495487E-14