
 displacements (vx,vy,vz) for set NALL and time  0.1000000E+01

         1  6.000000E+04  0.000000E+00  0.000000E+00
         2  6.000000E+04  3.201379E+00  0.000000E+00
         3  6.000000E+04  0.000000E+00  5.000000E-01
         4  6.000000E+04  2.542450E+00  1.542450E+00
         5  6.000000E+04  0.000000E+00  0.000000E+00
         6  6.000000E+04  8.350073E-01  1.809880E+00
         7  6.000000E+04  0.000000E+00  0.000000E+00
         8  6.000000E+04  8.615843E-01  1.542457E+00
         9  6.000000E+04  0.000000E+00  0.000000E+00
        10  6.000000E+04  5.000000E-01  1.542457E+00
        11  6.000000E+04  0.000000E+00  0.000000E+00
