
 displacements (vx,vy,vz) for set NALL and time  0.1000000E+01

         1  6.000000E+04  0.000000E+00  0.000000E+00
         2  6.000000E+04  3.666962E+00  0.000000E+00
         3  6.000000E+04  0.000000E+00  5.000000E-01
         4  6.000000E+04  8.000000E-01  1.542457E+00
         5  6.000000E+04  0.000000E+00  0.000000E+00
         6  6.000000E+04  8.000686E-01  1.542457E+00
         7  6.000000E+04  0.000000E+00  0.000000E+00
         8  6.000000E+04  8.159015E-01  1.542457E+00
         9  6.000000E+04  0.000000E+00  0.000000E+00
        10  6.000000E+04  9.839657E-01  1.542450E+00
        11  6.000000E+04  0.000000E+00  0.000000E+00
        12  6.000000E+04  9.837266E-01  1.542457E+00
        13  6.000000E+04  0.000000E+00  0.000000E+00
        14  6.000000E+04  8.157841E-01  1.542450E+00
        15  6.000000E+04  0.000000E+00  0.000000E+00
        16  6.000000E+04  8.305110E-01  1.542457E+00
        17  6.000000E+04  0.000000E+00  0.000000E+00
        18  6.000000E+04  5.000000E-01  1.542457E+00
        19  6.000000E+04  0.000000E+00  0.000000E+00
