
 displacements (vx,vy,vz) for set N1 and time  0.2216975E-07

        24  0.000000E+00  0.000000E+00  1.081462E-05

 displacements (vx,vy,vz) for set N1 and time  0.2000000E-07

        24  0.000000E+00  0.000000E+00  1.821963E-05

 displacements (vx,vy,vz) for set N1 and time  0.3000000E-07

        24  0.000000E+00  0.000000E+00  1.667603E-05

 displacements (vx,vy,vz) for set N1 and time  0.4000000E-07

        24  0.000000E+00  0.000000E+00  7.872600E-07

 displacements (vx,vy,vz) for set N1 and time  0.5000000E-07

        24  0.000000E+00  0.000000E+00 -2.902675E-05

 displacements (vx,vy,vz) for set N1 and time  0.6000000E-07

        24  0.000000E+00  0.000000E+00 -6.803272E-05

 displacements (vx,vy,vz) for set N1 and time  0.7000000E-07

        24  0.000000E+00  0.000000E+00 -1.101412E-04

 displacements (vx,vy,vz) for set N1 and time  0.8000000E-07

        24  0.000000E+00  0.000000E+00 -1.509999E-04

 displacements (vx,vy,vz) for set N1 and time  0.9000000E-07

        24  0.000000E+00  0.000000E+00 -1.895196E-04

 displacements (vx,vy,vz) for set N1 and time  0.1000000E-06

        24  0.000000E+00  0.000000E+00 -2.273125E-04

 displacements (vx,vy,vz) for set N1 and time  0.1100000E-06

        24  0.000000E+00  0.000000E+00 -2.668162E-04

 displacements (vx,vy,vz) for set N1 and time  0.1200000E-06

        24  0.000000E+00  0.000000E+00 -3.094498E-04

 displacements (vx,vy,vz) for set N1 and time  0.1300000E-06

        24  0.000000E+00  0.000000E+00 -3.547713E-04

 displacements (vx,vy,vz) for set N1 and time  0.1400000E-06

        24  0.000000E+00  0.000000E+00 -4.007581E-04

 displacements (vx,vy,vz) for set N1 and time  0.1500000E-06

        24  0.000000E+00  0.000000E+00 -4.446903E-04

 displacements (vx,vy,vz) for set N1 and time  0.1600000E-06

        24  0.000000E+00  0.000000E+00 -4.840605E-04

 displacements (vx,vy,vz) for set N1 and time  0.1700000E-06

        24  0.000000E+00  0.000000E+00 -5.172819E-04

 displacements (vx,vy,vz) for set N1 and time  0.1800000E-06

        24  0.000000E+00  0.000000E+00 -5.442561E-04

 displacements (vx,vy,vz) for set N1 and time  0.1900000E-06

        24  0.000000E+00  0.000000E+00 -5.667827E-04

 displacements (vx,vy,vz) for set N1 and time  0.2000000E-06

        24  0.000000E+00  0.000000E+00 -5.884848E-04

 displacements (vx,vy,vz) for set N1 and time  0.2100000E-06

        24  0.000000E+00  0.000000E+00 -6.138337E-04

 displacements (vx,vy,vz) for set N1 and time  0.2200000E-06

        24  0.000000E+00  0.000000E+00 -6.462643E-04

 displacements (vx,vy,vz) for set N1 and time  0.2300000E-06

        24  0.000000E+00  0.000000E+00 -6.861220E-04

 displacements (vx,vy,vz) for set N1 and time  0.2400000E-06

        24  0.000000E+00  0.000000E+00 -7.274007E-04

 displacements (vx,vy,vz) for set N1 and time  0.2500000E-06

        24  0.000000E+00  0.000000E+00 -7.600094E-04

 displacements (vx,vy,vz) for set N1 and time  0.2600000E-06

        24  0.000000E+00  0.000000E+00 -7.800592E-04

 displacements (vx,vy,vz) for set N1 and time  0.2700000E-06

        24  0.000000E+00  0.000000E+00 -7.938576E-04

 displacements (vx,vy,vz) for set N1 and time  0.2800000E-06

        24  0.000000E+00  0.000000E+00 -8.109405E-04

 displacements (vx,vy,vz) for set N1 and time  0.2900000E-06

        24  0.000000E+00  0.000000E+00 -8.335404E-04

 displacements (vx,vy,vz) for set N1 and time  0.3000000E-06

        24  0.000000E+00  0.000000E+00 -8.510186E-04

 displacements (vx,vy,vz) for set N1 and time  0.3100000E-06

        24  0.000000E+00  0.000000E+00 -8.460974E-04

 displacements (vx,vy,vz) for set N1 and time  0.3200000E-06

        24  0.000000E+00  0.000000E+00 -8.095845E-04

 displacements (vx,vy,vz) for set N1 and time  0.3300000E-06

        24  0.000000E+00  0.000000E+00 -7.517596E-04

 displacements (vx,vy,vz) for set N1 and time  0.3400000E-06

        24  0.000000E+00  0.000000E+00 -7.001220E-04

 displacements (vx,vy,vz) for set N1 and time  0.3500000E-06

        24  0.000000E+00  0.000000E+00 -6.810574E-04

 displacements (vx,vy,vz) for set N1 and time  0.3600000E-06

        24  0.000000E+00  0.000000E+00 -7.014807E-04

 displacements (vx,vy,vz) for set N1 and time  0.3700000E-06

        24  0.000000E+00  0.000000E+00 -7.491686E-04

 displacements (vx,vy,vz) for set N1 and time  0.3800000E-06

        24  0.000000E+00  0.000000E+00 -8.030153E-04

 displacements (vx,vy,vz) for set N1 and time  0.3900000E-06

        24  0.000000E+00  0.000000E+00 -8.408909E-04

 displacements (vx,vy,vz) for set N1 and time  0.4000000E-06

        24  0.000000E+00  0.000000E+00 -8.463296E-04

 displacements (vx,vy,vz) for set N1 and time  0.4100000E-06

        24  0.000000E+00  0.000000E+00 -8.132058E-04

 displacements (vx,vy,vz) for set N1 and time  0.4200000E-06

        24  0.000000E+00  0.000000E+00 -7.472567E-04

 displacements (vx,vy,vz) for set N1 and time  0.4300000E-06

        24  0.000000E+00  0.000000E+00 -6.649435E-04

 displacements (vx,vy,vz) for set N1 and time  0.4400000E-06

        24  0.000000E+00  0.000000E+00 -5.890270E-04

 displacements (vx,vy,vz) for set N1 and time  0.4500000E-06

        24  0.000000E+00  0.000000E+00 -5.407778E-04

 displacements (vx,vy,vz) for set N1 and time  0.4600000E-06

        24  0.000000E+00  0.000000E+00 -5.305748E-04

 displacements (vx,vy,vz) for set N1 and time  0.4700000E-06

        24  0.000000E+00  0.000000E+00 -5.517158E-04

 displacements (vx,vy,vz) for set N1 and time  0.4800000E-06

        24  0.000000E+00  0.000000E+00 -5.822942E-04

 displacements (vx,vy,vz) for set N1 and time  0.4900000E-06

        24  0.000000E+00  0.000000E+00 -5.952821E-04

 displacements (vx,vy,vz) for set N1 and time  0.5000000E-06

        24  0.000000E+00  0.000000E+00 -5.705618E-04

 displacements (vx,vy,vz) for set N1 and time  0.5100000E-06

        24  0.000000E+00  0.000000E+00 -5.069720E-04

 displacements (vx,vy,vz) for set N1 and time  0.5200000E-06

        24  0.000000E+00  0.000000E+00 -4.296752E-04

 displacements (vx,vy,vz) for set N1 and time  0.5300000E-06

        24  0.000000E+00  0.000000E+00 -3.782108E-04

 displacements (vx,vy,vz) for set N1 and time  0.5400000E-06

        24  0.000000E+00  0.000000E+00 -3.797667E-04

 displacements (vx,vy,vz) for set N1 and time  0.5500000E-06

        24  0.000000E+00  0.000000E+00 -4.299724E-04

 displacements (vx,vy,vz) for set N1 and time  0.5600000E-06

        24  0.000000E+00  0.000000E+00 -4.939408E-04

 displacements (vx,vy,vz) for set N1 and time  0.5700000E-06

        24  0.000000E+00  0.000000E+00 -5.263323E-04

 displacements (vx,vy,vz) for set N1 and time  0.5800000E-06

        24  0.000000E+00  0.000000E+00 -4.986486E-04

 displacements (vx,vy,vz) for set N1 and time  0.5900000E-06

        24  0.000000E+00  0.000000E+00 -4.165978E-04

 displacements (vx,vy,vz) for set N1 and time  0.6000000E-06

        24  0.000000E+00  0.000000E+00 -3.163636E-04

 displacements (vx,vy,vz) for set N1 and time  0.6100000E-06

        24  0.000000E+00  0.000000E+00 -2.418804E-04

 displacements (vx,vy,vz) for set N1 and time  0.6200000E-06

        24  0.000000E+00  0.000000E+00 -2.203511E-04

 displacements (vx,vy,vz) for set N1 and time  0.6300000E-06

        24  0.000000E+00  0.000000E+00 -2.505914E-04

 displacements (vx,vy,vz) for set N1 and time  0.6400000E-06

        24  0.000000E+00  0.000000E+00 -3.061910E-04

 displacements (vx,vy,vz) for set N1 and time  0.6500000E-06

        24  0.000000E+00  0.000000E+00 -3.524436E-04

 displacements (vx,vy,vz) for set N1 and time  0.6600000E-06

        24  0.000000E+00  0.000000E+00 -3.676002E-04

 displacements (vx,vy,vz) for set N1 and time  0.6700000E-06

        24  0.000000E+00  0.000000E+00 -3.535665E-04

 displacements (vx,vy,vz) for set N1 and time  0.6800000E-06

        24  0.000000E+00  0.000000E+00 -3.287690E-04

 displacements (vx,vy,vz) for set N1 and time  0.6900000E-06

        24  0.000000E+00  0.000000E+00 -3.104600E-04

 displacements (vx,vy,vz) for set N1 and time  0.7000000E-06

        24  0.000000E+00  0.000000E+00 -3.027333E-04

 displacements (vx,vy,vz) for set N1 and time  0.7100000E-06

        24  0.000000E+00  0.000000E+00 -2.987923E-04

 displacements (vx,vy,vz) for set N1 and time  0.7200000E-06

        24  0.000000E+00  0.000000E+00 -2.932665E-04

 displacements (vx,vy,vz) for set N1 and time  0.7300000E-06

        24  0.000000E+00  0.000000E+00 -2.902829E-04

 displacements (vx,vy,vz) for set N1 and time  0.7400000E-06

        24  0.000000E+00  0.000000E+00 -2.987667E-04

 displacements (vx,vy,vz) for set N1 and time  0.7500000E-06

        24  0.000000E+00  0.000000E+00 -3.224790E-04

 displacements (vx,vy,vz) for set N1 and time  0.7600000E-06

        24  0.000000E+00  0.000000E+00 -3.531463E-04

 displacements (vx,vy,vz) for set N1 and time  0.7700000E-06

        24  0.000000E+00  0.000000E+00 -3.722407E-04

 displacements (vx,vy,vz) for set N1 and time  0.7800000E-06

        24  0.000000E+00  0.000000E+00 -3.637360E-04

 displacements (vx,vy,vz) for set N1 and time  0.7900000E-06

        24  0.000000E+00  0.000000E+00 -3.291658E-04

 displacements (vx,vy,vz) for set N1 and time  0.8000000E-06

        24  0.000000E+00  0.000000E+00 -2.916386E-04

 displacements (vx,vy,vz) for set N1 and time  0.8100000E-06

        24  0.000000E+00  0.000000E+00 -2.830500E-04

 displacements (vx,vy,vz) for set N1 and time  0.8200000E-06

        24  0.000000E+00  0.000000E+00 -3.216021E-04

 displacements (vx,vy,vz) for set N1 and time  0.8300000E-06

        24  0.000000E+00  0.000000E+00 -3.955385E-04

 displacements (vx,vy,vz) for set N1 and time  0.8400000E-06

        24  0.000000E+00  0.000000E+00 -4.663506E-04

 displacements (vx,vy,vz) for set N1 and time  0.8500000E-06

        24  0.000000E+00  0.000000E+00 -4.913851E-04

 displacements (vx,vy,vz) for set N1 and time  0.8600000E-06

        24  0.000000E+00  0.000000E+00 -4.512483E-04

 displacements (vx,vy,vz) for set N1 and time  0.8700000E-06

        24  0.000000E+00  0.000000E+00 -3.639153E-04

 displacements (vx,vy,vz) for set N1 and time  0.8800000E-06

        24  0.000000E+00  0.000000E+00 -2.753268E-04

 displacements (vx,vy,vz) for set N1 and time  0.8900000E-06

        24  0.000000E+00  0.000000E+00 -2.312312E-04

 displacements (vx,vy,vz) for set N1 and time  0.9000000E-06

        24  0.000000E+00  0.000000E+00 -2.500001E-04

 displacements (vx,vy,vz) for set N1 and time  0.9100000E-06

        24  0.000000E+00  0.000000E+00 -3.147244E-04

 displacements (vx,vy,vz) for set N1 and time  0.9200000E-06

        24  0.000000E+00  0.000000E+00 -3.875061E-04

 displacements (vx,vy,vz) for set N1 and time  0.9300000E-06

        24  0.000000E+00  0.000000E+00 -4.346291E-04

 displacements (vx,vy,vz) for set N1 and time  0.9400000E-06

        24  0.000000E+00  0.000000E+00 -4.454171E-04

 displacements (vx,vy,vz) for set N1 and time  0.9500000E-06

        24  0.000000E+00  0.000000E+00 -4.335197E-04

 displacements (vx,vy,vz) for set N1 and time  0.9600000E-06

        24  0.000000E+00  0.000000E+00 -4.226481E-04

 displacements (vx,vy,vz) for set N1 and time  0.9700000E-06

        24  0.000000E+00  0.000000E+00 -4.290360E-04

 displacements (vx,vy,vz) for set N1 and time  0.9800000E-06

        24  0.000000E+00  0.000000E+00 -4.531277E-04

 displacements (vx,vy,vz) for set N1 and time  0.9900000E-06

        24  0.000000E+00  0.000000E+00 -4.844840E-04

 displacements (vx,vy,vz) for set N1 and time  0.1000000E-05

        24  0.000000E+00  0.000000E+00 -5.116420E-04
