
 displacements (vx,vy,vz) for set NALL and time  0.1000000E+01

         1  0.000000E+00  0.000000E+00  0.000000E+00
         2  0.000000E+00  0.000000E+00  0.000000E+00
         3  0.000000E+00  0.000000E+00  0.000000E+00
         4  0.000000E+00  0.000000E+00  0.000000E+00
         5  0.000000E+00  0.000000E+00  0.000000E+00
         6  0.000000E+00  0.000000E+00  0.000000E+00
         7  0.000000E+00  0.000000E+00  0.000000E+00
         8  0.000000E+00  0.000000E+00  0.000000E+00
         9  0.000000E+00  0.000000E+00  0.000000E+00
        10  0.000000E+00  0.000000E+00  0.000000E+00
        11  0.000000E+00  0.000000E+00  0.000000E+00
        12  0.000000E+00  0.000000E+00  0.000000E+00
        13  0.000000E+00  0.000000E+00  0.000000E+00
        14  0.000000E+00  0.000000E+00  0.000000E+00
        15  0.000000E+00  0.000000E+00  0.000000E+00
        16  0.000000E+00  0.000000E+00  0.000000E+00
        17  0.000000E+00  0.000000E+00  0.000000E+00
        18  0.000000E+00  0.000000E+00  0.000000E+00
        19  0.000000E+00  0.000000E+00  0.000000E+00
        20  0.000000E+00  0.000000E+00  0.000000E+00
        21  0.000000E+00  0.000000E+00  0.000000E+00
        22  0.000000E+00  0.000000E+00  0.000000E+00
        23  0.000000E+00  0.000000E+00  0.000000E+00
        24  0.000000E+00  0.000000E+00  0.000000E+00
        25  0.000000E+00  0.000000E+00  0.000000E+00
        26  0.000000E+00  0.000000E+00  0.000000E+00
        27  0.000000E+00  0.000000E+00  0.000000E+00
        28  0.000000E+00  0.000000E+00  0.000000E+00
        29  0.000000E+00  0.000000E+00  0.000000E+00
        30  0.000000E+00  0.000000E+00  0.000000E+00
        31  0.000000E+00  0.000000E+00  0.000000E+00
        32  0.000000E+00  0.000000E+00  0.000000E+00
        33  0.000000E+00  0.000000E+00  0.000000E+00
        34  0.000000E+00  0.000000E+00  0.000000E+00
        35  0.000000E+00  0.000000E+00  0.000000E+00
        36  0.000000E+00  0.000000E+00  0.000000E+00
        37  0.000000E+00  0.000000E+00  0.000000E+00
        38  0.000000E+00  0.000000E+00  0.000000E+00
        39  0.000000E+00  0.000000E+00  0.000000E+00
        40  0.000000E+00  0.000000E+00  0.000000E+00
        41  0.000000E+00  0.000000E+00  0.000000E+00
        42  0.000000E+00  0.000000E+00  0.000000E+00
        43  0.000000E+00  0.000000E+00  0.000000E+00
        44  0.000000E+00  0.000000E+00  0.000000E+00
        45  0.000000E+00  0.000000E+00  0.000000E+00
        46  0.000000E+00  0.000000E+00  0.000000E+00
        47  0.000000E+00  0.000000E+00  0.000000E+00
        48  0.000000E+00  0.000000E+00  0.000000E+00
        49  0.000000E+00  0.000000E+00  0.000000E+00
        50  0.000000E+00  0.000000E+00  0.000000E+00
        51  0.000000E+00  0.000000E+00  0.000000E+00
        52  0.000000E+00  0.000000E+00  0.000000E+00
        53  0.000000E+00  0.000000E+00  0.000000E+00
        54  0.000000E+00  0.000000E+00  0.000000E+00
        55  0.000000E+00  0.000000E+00  0.000000E+00
        56  0.000000E+00  0.000000E+00  0.000000E+00
        57  0.000000E+00  0.000000E+00  0.000000E+00
        58  0.000000E+00  0.000000E+00  0.000000E+00
        59  0.000000E+00  0.000000E+00  0.000000E+00
        60  0.000000E+00  0.000000E+00  0.000000E+00
        61  0.000000E+00  0.000000E+00  0.000000E+00
        62  0.000000E+00  0.000000E+00  0.000000E+00
        63  0.000000E+00  0.000000E+00  0.000000E+00
        64  0.000000E+00  0.000000E+00  0.000000E+00
        65  0.000000E+00  0.000000E+00  0.000000E+00
        66  0.000000E+00  0.000000E+00  0.000000E+00
        67  0.000000E+00  0.000000E+00  0.000000E+00
        68  0.000000E+00  0.000000E+00  0.000000E+00
        69  0.000000E+00  0.000000E+00  0.000000E+00
        70  0.000000E+00  0.000000E+00  0.000000E+00
        71  0.000000E+00  0.000000E+00  0.000000E+00
        72  0.000000E+00  0.000000E+00  0.000000E+00
        73  0.000000E+00  0.000000E+00  0.000000E+00
        74  0.000000E+00  0.000000E+00  0.000000E+00
        75  0.000000E+00  0.000000E+00  0.000000E+00
        76  0.000000E+00  0.000000E+00  0.000000E+00
        77  0.000000E+00  0.000000E+00  0.000000E+00
        78  0.000000E+00  0.000000E+00  0.000000E+00
        79  0.000000E+00  0.000000E+00  0.000000E+00
        80  0.000000E+00  0.000000E+00  0.000000E+00
        81  0.000000E+00  0.000000E+00  0.000000E+00
        82  0.000000E+00  0.000000E+00  0.000000E+00
        83  0.000000E+00  0.000000E+00  0.000000E+00
        84  0.000000E+00  0.000000E+00  0.000000E+00
        85  0.000000E+00  0.000000E+00  0.000000E+00
        86  0.000000E+00  0.000000E+00  0.000000E+00
        87  0.000000E+00  0.000000E+00  0.000000E+00
        88  0.000000E+00  0.000000E+00  0.000000E+00
        89  0.000000E+00  0.000000E+00  0.000000E+00
        90  0.000000E+00  0.000000E+00  0.000000E+00
        91  0.000000E+00  0.000000E+00  0.000000E+00
        92  0.000000E+00  0.000000E+00  0.000000E+00
        93  0.000000E+00  0.000000E+00  0.000000E+00
        94  0.000000E+00  0.000000E+00  0.000000E+00
        95  0.000000E+00  0.000000E+00  0.000000E+00
        96  0.000000E+00  0.000000E+00  0.000000E+00
        97  0.000000E+00  0.000000E+00  0.000000E+00
        98  0.000000E+00  0.000000E+00  0.000000E+00
        99  0.000000E+00  0.000000E+00  0.000000E+00
       100  0.000000E+00  0.000000E+00  0.000000E+00
       101  0.000000E+00  0.000000E+00  0.000000E+00
       102  0.000000E+00  0.000000E+00  0.000000E+00
       103  0.000000E+00  0.000000E+00  0.000000E+00
       104  0.000000E+00  0.000000E+00  0.000000E+00
       105  0.000000E+00  0.000000E+00  0.000000E+00
       106  0.000000E+00  0.000000E+00  0.000000E+00
       107  0.000000E+00  0.000000E+00  0.000000E+00
       108  0.000000E+00  0.000000E+00  0.000000E+00
       109  0.000000E+00  0.000000E+00  0.000000E+00
       110  0.000000E+00  0.000000E+00  0.000000E+00
       111  0.000000E+00  0.000000E+00  0.000000E+00
       112  0.000000E+00  0.000000E+00  0.000000E+00
       113  0.000000E+00  0.000000E+00  0.000000E+00
       114  0.000000E+00  0.000000E+00  0.000000E+00
       115  0.000000E+00  0.000000E+00  0.000000E+00
       116  0.000000E+00  0.000000E+00  0.000000E+00
       117  0.000000E+00  0.000000E+00  0.000000E+00
       118  0.000000E+00  0.000000E+00  0.000000E+00
       119  0.000000E+00  0.000000E+00  0.000000E+00
       120  0.000000E+00  0.000000E+00  0.000000E+00
       121  0.000000E+00  0.000000E+00  0.000000E+00
       122  0.000000E+00  0.000000E+00  0.000000E+00
       123  0.000000E+00  0.000000E+00  0.000000E+00
       124  0.000000E+00  0.000000E+00  0.000000E+00
       125  0.000000E+00  0.000000E+00  0.000000E+00
       126  0.000000E+00  0.000000E+00  0.000000E+00
       127  0.000000E+00  0.000000E+00  0.000000E+00
       128  0.000000E+00  0.000000E+00  0.000000E+00
       129  0.000000E+00  0.000000E+00  0.000000E+00
       130  0.000000E+00  0.000000E+00  0.000000E+00
       131  0.000000E+00  0.000000E+00  0.000000E+00
       132  0.000000E+00  0.000000E+00  0.000000E+00
       133  0.000000E+00  0.000000E+00  0.000000E+00
       134  0.000000E+00  0.000000E+00  0.000000E+00
       135  0.000000E+00  0.000000E+00  0.000000E+00
       136  0.000000E+00  0.000000E+00  0.000000E+00
       137  0.000000E+00  0.000000E+00  0.000000E+00
       138  0.000000E+00  0.000000E+00  0.000000E+00
       139  0.000000E+00  0.000000E+00  0.000000E+00
       140  0.000000E+00  0.000000E+00  0.000000E+00
       141  0.000000E+00  0.000000E+00  0.000000E+00
       142  0.000000E+00  0.000000E+00  0.000000E+00
       143  0.000000E+00  0.000000E+00  0.000000E+00
       144  0.000000E+00  0.000000E+00  0.000000E+00
       145  0.000000E+00  0.000000E+00  0.000000E+00
       146  0.000000E+00  0.000000E+00  0.000000E+00
       147  0.000000E+00  0.000000E+00  0.000000E+00
       148  0.000000E+00  0.000000E+00  0.000000E+00
       149  0.000000E+00  0.000000E+00  0.000000E+00
       150  0.000000E+00  0.000000E+00  0.000000E+00
       151  0.000000E+00  0.000000E+00  0.000000E+00
       152  0.000000E+00  0.000000E+00  0.000000E+00
       153  0.000000E+00  0.000000E+00  0.000000E+00
       154  0.000000E+00  0.000000E+00  0.000000E+00
       155  0.000000E+00  0.000000E+00  0.000000E+00
       156  0.000000E+00  0.000000E+00  0.000000E+00
       157  0.000000E+00  0.000000E+00  0.000000E+00
       158  0.000000E+00  0.000000E+00  0.000000E+00
       159  0.000000E+00  0.000000E+00  0.000000E+00
       160  0.000000E+00  0.000000E+00  0.000000E+00
       161  0.000000E+00  0.000000E+00  0.000000E+00
       162  0.000000E+00  0.000000E+00  0.000000E+00
       163  0.000000E+00  0.000000E+00  0.000000E+00
       164  0.000000E+00  0.000000E+00  0.000000E+00
       165  0.000000E+00  0.000000E+00  0.000000E+00
       166  0.000000E+00  0.000000E+00  0.000000E+00
       167  0.000000E+00  0.000000E+00  0.000000E+00
       168  0.000000E+00  0.000000E+00  0.000000E+00
       169  0.000000E+00  0.000000E+00  0.000000E+00
       170  0.000000E+00  0.000000E+00  0.000000E+00
       171  0.000000E+00  0.000000E+00  0.000000E+00
       172  0.000000E+00  0.000000E+00  0.000000E+00
       173  0.000000E+00  0.000000E+00  0.000000E+00
       174  0.000000E+00  0.000000E+00  0.000000E+00
       175  0.000000E+00  0.000000E+00  0.000000E+00
       176  0.000000E+00  0.000000E+00  0.000000E+00
       177  0.000000E+00  0.000000E+00  0.000000E+00
       178  0.000000E+00  0.000000E+00  0.000000E+00
       179  0.000000E+00  0.000000E+00  0.000000E+00
       180  0.000000E+00  0.000000E+00  0.000000E+00
       181  0.000000E+00  0.000000E+00  0.000000E+00
       182  0.000000E+00  0.000000E+00  0.000000E+00
       183  0.000000E+00  0.000000E+00  0.000000E+00
       184  0.000000E+00  0.000000E+00  0.000000E+00
       185  0.000000E+00  0.000000E+00  0.000000E+00
       186  0.000000E+00  0.000000E+00  0.000000E+00
       187  0.000000E+00  0.000000E+00  0.000000E+00
       188  0.000000E+00  0.000000E+00  0.000000E+00
       189  0.000000E+00  0.000000E+00  0.000000E+00
       190  0.000000E+00  0.000000E+00  0.000000E+00
       191  0.000000E+00  0.000000E+00  0.000000E+00
       192  0.000000E+00  0.000000E+00  0.000000E+00
       193  0.000000E+00  0.000000E+00  0.000000E+00
       194  0.000000E+00  0.000000E+00  0.000000E+00
       195  0.000000E+00  0.000000E+00  0.000000E+00
       196  0.000000E+00  0.000000E+00  0.000000E+00
       197  0.000000E+00  0.000000E+00  0.000000E+00
       198  0.000000E+00  0.000000E+00  0.000000E+00
       199  0.000000E+00  0.000000E+00  0.000000E+00
       200  0.000000E+00  0.000000E+00  0.000000E+00
       201  0.000000E+00  0.000000E+00  0.000000E+00
       202  0.000000E+00  0.000000E+00  0.000000E+00
       203  0.000000E+00  0.000000E+00  0.000000E+00
       204  0.000000E+00  0.000000E+00  0.000000E+00
       205  0.000000E+00  0.000000E+00  0.000000E+00
       206  0.000000E+00  0.000000E+00  0.000000E+00
       207  0.000000E+00  0.000000E+00  0.000000E+00
       208  0.000000E+00  0.000000E+00  0.000000E+00
       209  0.000000E+00  0.000000E+00  0.000000E+00
       210  0.000000E+00  0.000000E+00  0.000000E+00
       211  0.000000E+00  0.000000E+00  0.000000E+00
       212  0.000000E+00  0.000000E+00  0.000000E+00
       213  0.000000E+00  0.000000E+00  0.000000E+00
       214  0.000000E+00  0.000000E+00  0.000000E+00
       215  0.000000E+00  0.000000E+00  0.000000E+00
       216  0.000000E+00  0.000000E+00  0.000000E+00
       217  0.000000E+00  0.000000E+00  0.000000E+00
       218  0.000000E+00  0.000000E+00  0.000000E+00
       219  0.000000E+00  0.000000E+00  0.000000E+00
       220  0.000000E+00  0.000000E+00  0.000000E+00
       221  0.000000E+00  0.000000E+00  0.000000E+00
       222  0.000000E+00  0.000000E+00  0.000000E+00
       223  0.000000E+00  0.000000E+00  0.000000E+00
       224  0.000000E+00  0.000000E+00  0.000000E+00
       225  0.000000E+00  0.000000E+00  0.000000E+00
       226  0.000000E+00  0.000000E+00  0.000000E+00
       227  0.000000E+00  0.000000E+00  0.000000E+00
       228  0.000000E+00  0.000000E+00  0.000000E+00
       229  0.000000E+00  0.000000E+00  0.000000E+00
       230  0.000000E+00  0.000000E+00  0.000000E+00
       231  0.000000E+00  0.000000E+00  0.000000E+00
       232  0.000000E+00  0.000000E+00  0.000000E+00
       233  0.000000E+00  0.000000E+00  0.000000E+00
       234  0.000000E+00  0.000000E+00  0.000000E+00
       235  0.000000E+00  0.000000E+00  0.000000E+00
       236  0.000000E+00  0.000000E+00  0.000000E+00
       237  0.000000E+00  0.000000E+00  0.000000E+00
       238  0.000000E+00  0.000000E+00  0.000000E+00
       239  0.000000E+00  0.000000E+00  0.000000E+00
       240  0.000000E+00  0.000000E+00  0.000000E+00
       241  0.000000E+00  0.000000E+00  0.000000E+00
       242  0.000000E+00  0.000000E+00  0.000000E+00
       243  0.000000E+00  0.000000E+00  0.000000E+00
       244  0.000000E+00  0.000000E+00  0.000000E+00
       245  0.000000E+00  0.000000E+00  0.000000E+00
       246  0.000000E+00  0.000000E+00  0.000000E+00
       247  0.000000E+00  0.000000E+00  0.000000E+00
       248  0.000000E+00  0.000000E+00  0.000000E+00
       249  0.000000E+00  0.000000E+00  0.000000E+00
       250  0.000000E+00  0.000000E+00  0.000000E+00
       251  0.000000E+00  0.000000E+00  0.000000E+00
       252  0.000000E+00  0.000000E+00  0.000000E+00
       253  0.000000E+00  0.000000E+00  0.000000E+00
       254  0.000000E+00  0.000000E+00  0.000000E+00
       255  0.000000E+00  0.000000E+00  0.000000E+00
       256  0.000000E+00  0.000000E+00  0.000000E+00
       257  0.000000E+00  0.000000E+00  0.000000E+00
       258  0.000000E+00  0.000000E+00  0.000000E+00
       259  0.000000E+00  0.000000E+00  0.000000E+00
       260  0.000000E+00  0.000000E+00  0.000000E+00
       261  0.000000E+00  0.000000E+00  0.000000E+00
       262  0.000000E+00  0.000000E+00  0.000000E+00
       263  0.000000E+00  0.000000E+00  0.000000E+00
       264  6.222318E-05 -1.667808E-02 -2.611416E-04
       265 -4.892141E-03 -1.801670E-02  1.729682E-02
       266  0.000000E+00  0.000000E+00  0.000000E+00
       267  0.000000E+00  0.000000E+00  0.000000E+00
       268  6.034718E-05 -2.049656E-02 -3.735526E-04
       269 -2.672404E-03 -2.190721E-02  1.740268E-02
       270  0.000000E+00  0.000000E+00  0.000000E+00
       271  5.709173E-05 -3.135971E-03 -7.089004E-05
       272 -2.419299E-03 -1.695539E-02  8.521731E-03
       273 -3.897737E-03 -4.790600E-03  8.958260E-03
       274  0.000000E+00  0.000000E+00  0.000000E+00
       275  0.000000E+00  0.000000E+00  0.000000E+00
       276  6.532818E-05 -1.896915E-02 -3.274026E-04
       277 -3.758708E-03 -2.033599E-02  1.710420E-02
       278  0.000000E+00  0.000000E+00  0.000000E+00
       279  2.416024E-05 -5.639635E-03 -1.137656E-04
       280 -1.307058E-03 -2.078793E-02  8.266022E-03
       281 -1.299675E-03 -7.255445E-03  8.688262E-03
       282  0.000000E+00  0.000000E+00  0.000000E+00
       283  4.972106E-03 -1.728284E-02 -1.792933E-02
       284  0.000000E+00  0.000000E+00  0.000000E+00
       285  2.803262E-03 -2.116795E-02 -1.826711E-02
       286  0.000000E+00  0.000000E+00  0.000000E+00
       287  3.983851E-03 -4.532828E-03 -9.146661E-03
       288  2.527882E-03 -1.657887E-02 -9.082058E-03
       289  0.000000E+00  0.000000E+00  0.000000E+00
       290  3.878716E-03 -1.959837E-02 -1.786608E-02
       291  0.000000E+00  0.000000E+00  0.000000E+00
       292  1.355995E-03 -7.019822E-03 -8.941788E-03
       293  1.427413E-03 -2.041928E-02 -9.051841E-03
       294  0.000000E+00  0.000000E+00  0.000000E+00
       295  0.000000E+00  0.000000E+00  0.000000E+00
       296  4.332858E-05 -2.215098E-02 -3.927370E-04
       297 -4.390880E-04 -2.344444E-02  1.717653E-02
       298  0.000000E+00  0.000000E+00  0.000000E+00
       299  0.000000E+00  0.000000E+00  0.000000E+00
       300  5.308024E-05 -2.170092E-02 -4.003831E-04
       301 -1.572054E-03 -2.305812E-02  1.753718E-02
       302  0.000000E+00  0.000000E+00  0.000000E+00
       303 -1.890905E-05 -5.789968E-03 -1.035656E-04
       304 -2.019585E-04 -2.238898E-02  7.889932E-03
       305  1.388506E-03 -7.328591E-03  8.933702E-03
       306  0.000000E+00  0.000000E+00  0.000000E+00
       307  5.783101E-04 -2.274232E-02 -1.805479E-02
       308  0.000000E+00  0.000000E+00  0.000000E+00
       309  1.700478E-03 -2.232494E-02 -1.845223E-02
       310  0.000000E+00  0.000000E+00  0.000000E+00
       311 -1.392296E-03 -7.095983E-03 -9.171888E-03
       312  3.095483E-04 -2.205946E-02 -8.697455E-03
       313  1.791007E-04 -6.564502E-02 -1.472828E-03
       314 -6.908329E-03 -6.731047E-02  2.866846E-02
       315  2.222827E-04 -7.200033E-02 -1.753374E-03
       316 -5.432096E-03 -7.366243E-02  2.848169E-02
       317  1.133792E-04 -3.793115E-02 -7.120998E-04
       318 -3.366432E-03 -6.632488E-02  1.357071E-02
       319 -5.980833E-03 -3.956244E-02  2.385563E-02
       320  2.021651E-04 -6.897498E-02 -1.628981E-03
       321 -6.168247E-03 -7.062791E-02  2.842088E-02
       322  1.210414E-04 -4.306963E-02 -9.061016E-04
       323 -2.594297E-03 -7.267079E-02  1.319455E-02
       324 -4.075672E-03 -4.469592E-02  2.376675E-02
       325  7.271452E-03 -6.533473E-02 -3.172604E-02
       326  5.876442E-03 -7.172252E-02 -3.209920E-02
       327  6.177002E-03 -3.823611E-02 -2.541790E-02
       328  3.721444E-03 -6.534061E-02 -1.654454E-02
       329  6.580650E-03 -6.869785E-02 -3.178102E-02
       330  4.327240E-03 -4.338121E-02 -2.571687E-02
       331  3.048294E-03 -7.172324E-02 -1.672063E-02
       332  2.375223E-04 -7.694706E-02 -1.935522E-03
       333 -3.930500E-03 -7.853967E-02  2.820549E-02
       334  2.316861E-04 -7.462148E-02 -1.853579E-03
       335 -4.676792E-03 -7.633858E-02  2.858159E-02
       336  1.109936E-04 -4.633590E-02 -9.968597E-04
       337 -1.863008E-03 -7.756031E-02  1.272306E-02
       338 -2.187547E-03 -4.793270E-02  2.357509E-02
       339  4.484002E-03 -7.667953E-02 -3.218516E-02
       340  5.180197E-03 -7.434068E-02 -3.240711E-02
       341  2.483430E-03 -4.668549E-02 -2.569763E-02
       342  2.360986E-03 -7.668191E-02 -1.660873E-02
       343  5.121391E-04 -1.338249E-01 -3.804328E-03
       344 -8.613918E-03 -1.354239E-01  3.289849E-02
       345  5.998936E-04 -1.425781E-01 -4.188469E-03
       346 -7.912011E-03 -1.444374E-01  3.259275E-02
       347  3.142913E-04 -9.809777E-02 -2.517152E-03
       348 -4.039154E-03 -1.345460E-01  1.452600E-02
       349 -7.778661E-03 -9.981905E-02  3.159411E-02
       350  5.589723E-04 -1.382837E-01 -3.995598E-03
       351 -8.269765E-03 -1.400327E-01  3.256388E-02
       352  3.747725E-04 -1.056719E-01 -2.866855E-03
       353 -3.713199E-03 -1.434286E-01  1.398066E-02
       354 -6.713472E-03 -1.074148E-01  3.135119E-02
       355  9.543547E-03 -1.326707E-01 -4.051725E-02
       356  9.105251E-03 -1.414454E-01 -4.106318E-02
       357  8.389489E-03 -9.735317E-02 -3.671470E-02
       358  5.032880E-03 -1.331802E-01 -2.212170E-02
       359  9.320774E-03 -1.371326E-01 -4.063347E-02
       360  7.472151E-03 -1.049159E-01 -3.716731E-02
       361  4.857238E-03 -1.419661E-01 -2.241590E-02
       362  6.744989E-04 -1.508039E-01 -4.535561E-03
       363 -7.449876E-03 -1.529361E-01  3.214650E-02
       364  6.384342E-04 -1.467942E-01 -4.370131E-03
       365 -7.688609E-03 -1.485090E-01  3.265460E-02
       366  4.405229E-04 -1.122612E-01 -3.142207E-03
       367 -3.318687E-03 -1.517801E-01  1.329579E-02
       368 -5.727285E-03 -1.140534E-01  3.097759E-02
       369  8.695210E-03 -1.497358E-01 -4.137603E-02
       370  8.900598E-03 -1.456307E-01 -4.149543E-02
       371  6.527874E-03 -1.115127E-01 -3.734736E-02
       372  4.666629E-03 -1.502625E-01 -2.247870E-02
       373  1.264959E-03 -2.089254E-01 -6.716923E-03
       374 -9.675192E-03 -2.100278E-01  3.057081E-02
       375  1.378661E-03 -2.201237E-01 -7.076302E-03
       376 -1.015749E-02 -2.223314E-01  3.026890E-02
       377  7.556229E-04 -1.712587E-01 -5.239592E-03
       378 -4.205564E-03 -2.095190E-01  1.193523E-02
       379 -9.295115E-03 -1.728621E-01  3.236057E-02
       380  1.319826E-03 -2.144034E-01 -6.888148E-03
       381 -9.895802E-03 -2.159215E-01  3.033084E-02
       382  8.462488E-04 -1.813371E-01 -5.725929E-03
       383 -4.095015E-03 -2.212221E-01  1.148528E-02
       384 -9.246110E-03 -1.828470E-01  3.216091E-02
       385  1.178816E-02 -2.073246E-01 -4.398000E-02
       386  1.217293E-02 -2.181389E-01 -4.437331E-02
       387  1.072785E-02 -1.698232E-01 -4.284389E-02
       388  6.529085E-03 -2.081819E-01 -2.535360E-02
       389  1.198633E-02 -2.126849E-01 -4.408144E-02
       390  1.075172E-02 -1.797916E-01 -4.336688E-02
       391  6.750885E-03 -2.191329E-01 -2.563523E-02
       392  1.184814E-03 -2.316913E-01 -7.473560E-03
       393 -1.032693E-02 -2.347947E-01  2.983813E-02
       394  1.285106E-03 -2.257760E-01 -7.278845E-03
       395 -1.023341E-02 -2.296556E-01  3.020491E-02
       396  8.870599E-04 -1.913386E-01 -6.274544E-03
       397 -4.826104E-03 -2.332015E-01  1.090696E-02
       398 -8.796499E-03 -1.925976E-01  3.167708E-02
       399  1.262326E-02 -2.293171E-01 -4.470597E-02
       400  1.239014E-02 -2.236977E-01 -4.466903E-02
       401  1.082209E-02 -1.897478E-01 -4.372634E-02
       402  6.949607E-03 -2.304452E-01 -2.586332E-02
       403  2.308645E-03 -2.807488E-01 -9.407122E-03
       404 -9.160290E-03 -2.818393E-01  2.560903E-02
       405  2.441495E-03 -2.922658E-01 -9.620630E-03
       406 -9.250747E-03 -2.936306E-01  2.538668E-02
       407  1.677614E-03 -2.454379E-01 -8.114214E-03
       408 -3.411305E-03 -2.813310E-01  8.138880E-03
       409 -9.530102E-03 -2.467488E-01  2.808623E-02
       410  2.377185E-03 -2.864741E-01 -9.521142E-03
       411 -9.214442E-03 -2.877402E-01  2.548954E-02
       412  1.786796E-03 -2.569300E-01 -8.285971E-03
       413 -3.460542E-03 -2.930061E-01  7.944700E-03
       414 -9.875327E-03 -2.581176E-01  2.775304E-02
       415  1.366237E-02 -2.792573E-01 -4.443764E-02
       416  1.410288E-02 -2.908048E-01 -4.457273E-02
       417  1.280859E-02 -2.438727E-01 -4.429389E-02
       418  7.989603E-03 -2.800398E-01 -2.697805E-02
       419  1.387723E-02 -2.849851E-01 -4.448256E-02
       420  1.328001E-02 -2.552404E-01 -4.453794E-02
       421  8.276995E-03 -2.915846E-01 -2.713447E-02
       422  2.567506E-03 -3.040900E-01 -9.847629E-03
       423 -9.570115E-03 -3.057650E-01  2.514924E-02
       424  2.504498E-03 -2.981744E-01 -9.723749E-03
       425 -9.418957E-03 -2.993804E-01  2.525336E-02
       426  1.855216E-03 -2.687920E-01 -8.424838E-03
       427 -3.423741E-03 -3.050020E-01  7.756009E-03
       428 -9.909063E-03 -2.697437E-01  2.751272E-02
       429  1.459350E-02 -3.026955E-01 -4.473995E-02
       430  1.434606E-02 -2.966987E-01 -4.465615E-02
       431  1.380315E-02 -2.670119E-01 -4.479144E-02
       432  8.561352E-03 -3.034583E-01 -2.733908E-02
       433  3.555590E-03 -3.483543E-01 -1.177754E-02
       434 -8.174476E-03 -3.495045E-01  2.155566E-02
       435  3.696538E-03 -3.602129E-01 -1.191670E-02
       436 -8.258932E-03 -3.613523E-01  2.140418E-02
       437  2.924716E-03 -3.149712E-01 -1.062679E-02
       438 -2.312200E-03 -3.489602E-01  4.938200E-03
       439 -8.660746E-03 -3.161287E-01  2.346674E-02
       440  3.623540E-03 -3.542593E-01 -1.184315E-02
       441 -8.215732E-03 -3.553801E-01  2.145568E-02
       442  3.057735E-03 -3.266762E-01 -1.079141E-02
       443 -2.262114E-03 -3.608048E-01  4.758953E-03
       444 -8.768453E-03 -3.278667E-01  2.328886E-02
       445  1.529226E-02 -3.470067E-01 -4.509142E-02
       446  1.562818E-02 -3.588590E-01 -4.522714E-02
       447  1.448619E-02 -3.135588E-01 -4.471002E-02
       448  9.426411E-03 -3.477042E-01 -2.847812E-02
       449  1.545960E-02 -3.529109E-01 -4.513393E-02
       450  1.487424E-02 -3.252448E-01 -4.485338E-02
       451  9.663261E-03 -3.595565E-01 -2.859423E-02
       452  3.834018E-03 -3.722757E-01 -1.207048E-02
       453 -8.270767E-03 -3.733836E-01  2.126486E-02
       454  3.763435E-03 -3.662092E-01 -1.199609E-02
       455 -8.263918E-03 -3.674163E-01  2.134915E-02
       456  3.216022E-03 -3.386323E-01 -1.097235E-02
       457 -2.237231E-03 -3.728454E-01  4.587317E-03
       458 -8.922200E-03 -3.398905E-01  2.311274E-02
       459  1.598525E-02 -3.709109E-01 -4.539635E-02
       460  1.580579E-02 -3.648633E-01 -4.532320E-02
       461  1.525781E-02 -3.371777E-01 -4.503379E-02
       462  9.917628E-03 -3.716088E-01 -2.873950E-02
       463  4.860707E-03 -4.133024E-01 -1.393173E-02
       464 -7.244758E-03 -4.143450E-01  1.839162E-02
       465  5.004947E-03 -4.254334E-01 -1.405801E-02
       466 -7.162215E-03 -4.265498E-01  1.825266E-02
       467  4.209740E-03 -3.810714E-01 -1.286858E-02
       468 -1.176747E-03 -4.138332E-01  2.246759E-03
       469 -7.722155E-03 -3.821834E-01  1.987976E-02
       470  4.932000E-03 -4.193506E-01 -1.399156E-02
       471 -7.204767E-03 -4.204935E-01  1.831063E-02
       472  4.346543E-03 -3.930755E-01 -1.300305E-02
       473 -1.095415E-03 -4.260056E-01  2.110392E-03
       474 -7.720604E-03 -3.942051E-01  1.973397E-02
       475  1.693625E-02 -4.120427E-01 -4.622450E-02
       476  1.717696E-02 -4.241831E-01 -4.634856E-02
       477  1.610763E-02 -3.797889E-01 -4.560552E-02
       478  1.089505E-02 -4.126758E-01 -3.012285E-02
       479  1.705681E-02 -4.181034E-01 -4.625995E-02
       480  1.640402E-02 -3.917804E-01 -4.572765E-02
       481  1.109374E-02 -4.248169E-01 -3.022643E-02
       482  5.155784E-03 -4.376708E-01 -1.419368E-02
       483 -7.143257E-03 -4.388605E-01  1.812095E-02
       484  5.079487E-03 -4.315383E-01 -1.412371E-02
       485 -7.156106E-03 -4.326629E-01  1.819935E-02
       486  4.494642E-03 -4.052316E-01 -1.314849E-02
       487 -9.868941E-04 -4.382834E-01  1.978916E-03
       488 -7.715608E-03 -4.063629E-01  1.960200E-02
       489  1.742991E-02 -4.364217E-01 -4.650199E-02
       490  1.730202E-02 -4.302875E-01 -4.643800E-02
       491  1.670767E-02 -4.039248E-01 -4.588587E-02
       492  1.129302E-02 -4.370598E-01 -3.036034E-02
       493  6.080065E-03 -4.768281E-01 -1.591566E-02
       494 -6.225114E-03 -4.774978E-01  1.568530E-02
       495  6.354146E-03 -4.892839E-01 -1.609652E-02
       496 -6.080648E-03 -4.901852E-01  1.569447E-02
       497  5.493927E-03 -4.451187E-01 -1.491642E-02
       498 -1.518018E-04 -4.772083E-01  5.904640E-05
       499 -6.663949E-03 -4.463948E-01  1.700892E-02
       500  6.221667E-03 -4.830700E-01 -1.601149E-02
       501 -6.159903E-03 -4.835770E-01  1.561755E-02
       502  5.657601E-03 -4.574228E-01 -1.507105E-02
       503  2.076926E-04 -4.897498E-01 -1.244149E-04
       504 -6.683030E-03 -4.586115E-01  1.691949E-02
       505  1.850256E-02 -4.757781E-01 -4.795217E-02
       506  1.866065E-02 -4.881855E-01 -4.810941E-02
       507  1.775694E-02 -4.439229E-01 -4.700406E-02
       508  1.229987E-02 -4.763238E-01 -3.196343E-02
       509  1.857954E-02 -4.819782E-01 -4.801834E-02
       510  1.795559E-02 -4.562273E-01 -4.715181E-02
       511  1.249687E-02 -4.887457E-01 -3.211411E-02
       512  6.533324E-03 -5.017583E-01 -1.619867E-02
       513 -5.867123E-03 -5.029940E-01  1.582711E-02
       514  6.446575E-03 -4.955389E-01 -1.616281E-02
       515 -5.973839E-03 -4.966463E-01  1.578595E-02
       516  5.810719E-03 -4.697809E-01 -1.519943E-02
       517  3.400370E-04 -5.023716E-01 -1.919158E-04
       518 -6.552582E-03 -4.709453E-01  1.688102E-02
       519  1.882545E-02 -5.005742E-01 -4.826525E-02
       520  1.874667E-02 -4.943876E-01 -4.819411E-02
       521  1.814739E-02 -4.685659E-01 -4.730697E-02
       522  1.267736E-02 -5.011593E-01 -3.224062E-02

 displacements (vx,vy,vz) for set NALL and time  0.2000000E+01

         1  0.000000E+00  0.000000E+00  0.000000E+00
         2  0.000000E+00  0.000000E+00  0.000000E+00
         3  4.280944E-06 -1.287444E-03 -5.581698E-06
         4 -3.362907E-04 -1.382241E-03  1.451049E-03
         5  0.000000E+00  0.000000E+00  0.000000E+00
         6  0.000000E+00  0.000000E+00  0.000000E+00
         7  3.868762E-06 -1.524191E-03 -2.766966E-06
         8 -1.325080E-04 -1.624881E-03  1.466574E-03
         9  0.000000E+00  0.000000E+00  0.000000E+00
        10  1.640448E-06 -2.176128E-04 -2.304472E-06
        11 -1.666783E-04 -1.300144E-03  7.277316E-04
        12 -2.817678E-04 -3.443196E-04  7.160918E-04
        13  0.000000E+00  0.000000E+00  0.000000E+00
        14  0.000000E+00  0.000000E+00  0.000000E+00
        15  4.014066E-06 -1.439428E-03 -4.214392E-06
        16 -2.331806E-04 -1.536493E-03  1.444614E-03
        17  0.000000E+00  0.000000E+00  0.000000E+00
        18  1.025713E-06 -3.824134E-04 -8.816180E-07
        19 -6.408424E-05 -1.538514E-03  7.221268E-04
        20 -6.519775E-05 -5.077350E-04  6.954681E-04
        21  0.000000E+00  0.000000E+00  0.000000E+00
        22  3.440058E-04 -1.378310E-03 -1.462856E-03
        23  0.000000E+00  0.000000E+00  0.000000E+00
        24  1.398568E-04 -1.620020E-03 -1.472875E-03
        25  0.000000E+00  0.000000E+00  0.000000E+00
        26  2.843497E-04 -3.438798E-04 -7.210133E-04
        27  1.750163E-04 -1.298070E-03 -7.391140E-04
        28  0.000000E+00  0.000000E+00  0.000000E+00
        29  2.406544E-04 -1.532069E-03 -1.453715E-03
        30  0.000000E+00  0.000000E+00  0.000000E+00
        31  6.683717E-05 -5.063887E-04 -6.973177E-04
        32  7.176551E-05 -1.536021E-03 -7.279200E-04
        33  0.000000E+00  0.000000E+00  0.000000E+00
        34  0.000000E+00  0.000000E+00  0.000000E+00
        35  3.822291E-06 -1.559832E-03  6.937442E-07
        36  7.363251E-05 -1.653398E-03  1.457288E-03
        37  0.000000E+00  0.000000E+00  0.000000E+00
        38  0.000000E+00  0.000000E+00  0.000000E+00
        39  3.762952E-06 -1.575291E-03 -1.164120E-06
        40 -3.061877E-05 -1.672722E-03  1.472903E-03
        41  0.000000E+00  0.000000E+00  0.000000E+00