
 displacements (vx,vy,vz) for set N1 and time  0.1000000E+01

       262  7.211014E-12 -4.493477E-12  3.000000E-01



 statistics for surface set S1 and time  0.1000000E+01

   total surface force (fx,fy,fz) and moment about the origin(mx,my,mz)

    1.175467E-09 -4.876988E-10  7.910861E+03  3.955431E+03 -3.955431E+03  1.314474E+02

   center of gravity and mean normal

    5.000000E-01  5.000000E-01  8.000000E+00  8.881784E-16  8.881784E-16  1.000000E+00

   moment about the center of gravity(mx,my,mz)

    2.470699E-10 -1.351509E-09  1.314474E+02

   area,  normal force (+ = tension) and shear force (size)

    1.000000E+00  7.910861E+03  1.268860E-09
