
 displacements (vx,vy,vz) for set N1 and time  0.1000000E+01

       262  3.367636E-14  4.912490E-14 -7.044394E-07



 statistics for surface set S1 and time  0.1000000E+01

   total surface force (fx,fy,fz) and moment about the origin(mx,my,mz)

    4.350298E-12  5.846879E-12  2.555042E-04  1.277521E-04 -1.277521E-04  1.314498E+01

   center of gravity and mean normal

    5.000000E-01  5.000000E-01  7.999999E+00  6.563995E-15  1.071825E-14  1.000000E+00

   moment about the center of gravity(mx,my,mz)

   -2.509553E-13  7.274473E-14  1.314498E+01

   area,  normal force (+ = tension) and shear force (size)

    1.000004E+00  2.555042E-04  8.003832E-12
