    1C
    1UUSER                                                              
    1UDATE              24.november.2019                                
    1UTIME              19:36:38                                        
    1UHOST                                                              
    1UPGM               CalculiX                                        
    1UVERSION           Version 2.16                             
    1UCOMPILETIME       So 24. Nov 18:30:58 CET 2019                    
    1UDIR                                                               
    1UDBN                                                               
    1UMAT    1EL                                                        
    2C                             8                                     1
 -1         1 0.00000E+00 0.00000E+00 0.00000E+00
 -1         2 1.00000E+00 0.00000E+00 0.00000E+00
 -1         3 1.00000E+00 1.00000E+00 0.00000E+00
 -1         4 0.00000E+00 1.00000E+00 0.00000E+00
 -1         5 0.00000E+00 0.00000E+00 1.00000E+00
 -1         6 1.00000E+00 0.00000E+00 1.00000E+00
 -1         7 1.00000E+00 1.00000E+00 1.00000E+00
 -1         8 0.00000E+00 1.00000E+00 1.00000E+00
 -3
    3C                             1                                     1
 -1         1    1    0    1
 -2         1         2         3         4         5         6         7         8
 -3
    1PSTEP                         1         694           1          
  100CL  101 1.000000000           8                     1    1           1
 -4  DISP        4    1
 -5  D1          1    2    1    0
 -5  D2          1    2    2    0
 -5  D3          1    2    3    0
 -5  ALL         1    2    0    0    1ALL
 -1         1 5.00000E-01 0.00000E+00 0.00000E+00
 -1         2 5.00000E-01 0.00000E+00 0.00000E+00
 -1         3 5.00000E-01 0.00000E+00 0.00000E+00
 -1         4 5.00000E-01 0.00000E+00 0.00000E+00
 -1         5 5.00000E-01 0.00000E+00 0.00000E+00
 -1         6 5.00000E-01 0.00000E+00 0.00000E+00
 -1         7 5.00000E-01 0.00000E+00 0.00000E+00
 -1         8 5.00000E-01 0.00000E+00 0.00000E+00
 -3
    1PSTEP                         2         694           1          
  100CL  101 1.000000000           8                     1    1           1
 -4  VELO        4    1
 -5  V1          1    2    1    0
 -5  V2          1    2    2    0
 -5  V3          1    2    3    0
 -5  ALL         1    2    0    0    1ALL
 -1         1 1.00000E+00 0.00000E+00 0.00000E+00
 -1         2 1.00000E+00 0.00000E+00 0.00000E+00
 -1         3 1.00000E+00 0.00000E+00 0.00000E+00
 -1         4 1.00000E+00 0.00000E+00 0.00000E+00
 -1         5 1.00000E+00 0.00000E+00 0.00000E+00
 -1         6 1.00000E+00 0.00000E+00 0.00000E+00
 -1         7 1.00000E+00 0.00000E+00 0.00000E+00
 -1         8 1.00000E+00 0.00000E+00 0.00000E+00
 -3
 9999
