
 displacements (vx,vy,vz) for set NALL and time  0.1000000E+01

         3  4.447561E-04  4.700000E-01  5.500000E+02
      7001  4.447561E-04  0.000000E+00  0.000000E+00
      7002  4.447561E-04  4.678554E-01  5.211474E+02
      7003  4.447561E-04  0.000000E+00  0.000000E+00
      7004  4.447561E-04  4.656989E-01  5.207675E+02
      7005  4.447562E-04  0.000000E+00  0.000000E+00
      7006  4.447562E-04  4.635226E-01  5.203749E+02
      7007  4.447562E-04  0.000000E+00  0.000000E+00
      7008  4.447562E-04  4.613259E-01  5.199689E+02
      7009  4.447563E-04  0.000000E+00  0.000000E+00
      7010  4.447563E-04  4.591080E-01  5.195486E+02
      7011  4.447563E-04  0.000000E+00  0.000000E+00
      7012  4.447563E-04  4.568682E-01  5.191134E+02
      7013  4.447564E-04  0.000000E+00  0.000000E+00
      7014  4.447564E-04  4.546057E-01  5.186620E+02
      7015  4.447564E-04  0.000000E+00  0.000000E+00
      7016  4.447564E-04  4.523197E-01  5.181936E+02
      7017  4.447564E-04  0.000000E+00  0.000000E+00
         4  4.447564E-04  4.500000E-01  5.500000E+02
      3000  4.447561E-04  0.000000E+00  0.000000E+00
      4000  4.447562E-04  0.000000E+00  0.000000E+00

 temperatures for set NALL and time  0.1000000E+01

         3  5.500000E+02
      7001  0.000000E+00
      7002  5.500000E+02
      7003  0.000000E+00
      7004  5.500000E+02
      7005  0.000000E+00
      7006  5.500000E+02
      7007  0.000000E+00
      7008  5.500000E+02
      7009  0.000000E+00
      7010  5.500000E+02
      7011  0.000000E+00
      7012  5.500000E+02
      7013  0.000000E+00
      7014  5.500000E+02
      7015  0.000000E+00
      7016  5.500000E+02
      7017  0.000000E+00
         4  5.500000E+02
      3000  0.000000E+00
      4000  0.000000E+00
