
 displacements (vx,vy,vz) for set N1 and time  0.1000000E+01

       100  8.992435E+00 -9.999599E+00  1.201878E-15
