
 displacements (vx,vy,vz) for set NOUT and time  0.1000000E+01

         1  4.934943E-07 -1.205747E-06  0.000000E+00
         4  4.934943E-07 -1.205747E-06  0.000000E+00
         5  4.870523E-07 -1.117456E-06  0.000000E+00
         8  4.870523E-07 -1.117456E-06  0.000000E+00
         9  4.735279E-07 -1.047794E-06  0.000000E+00
        12  4.735279E-07 -1.047794E-06  0.000000E+00
        13  4.585791E-07 -9.885009E-07  0.000000E+00
        16  4.585791E-07 -9.885009E-07  0.000000E+00
        17  4.431894E-07 -9.362658E-07  0.000000E+00
        20  4.431894E-07 -9.362658E-07  0.000000E+00
        21  4.275582E-07 -8.893035E-07  0.000000E+00
        24  4.275582E-07 -8.893035E-07  0.000000E+00
        25  4.117375E-07 -8.465719E-07  0.000000E+00
        28  4.117375E-07 -8.465719E-07  0.000000E+00
        29  3.957414E-07 -8.073890E-07  0.000000E+00
        32  3.957414E-07 -8.073890E-07  0.000000E+00
        33  3.795735E-07 -7.712808E-07  0.000000E+00
        36  3.795735E-07 -7.712808E-07  0.000000E+00
        37  3.632346E-07 -7.379022E-07  0.000000E+00
        40  3.632346E-07 -7.379022E-07  0.000000E+00
        41  3.467256E-07 -7.069936E-07  0.000000E+00
        44  3.467256E-07 -7.069936E-07  0.000000E+00
        45  3.300483E-07 -6.783552E-07  0.000000E+00
        48  3.300483E-07 -6.783552E-07  0.000000E+00
        49  3.132058E-07 -6.518305E-07  0.000000E+00
        52  3.132058E-07 -6.518305E-07  0.000000E+00
        53  2.962023E-07 -6.272956E-07  0.000000E+00
        56  2.962023E-07 -6.272956E-07  0.000000E+00
        57  2.790433E-07 -6.046517E-07  0.000000E+00
        60  2.790433E-07 -6.046517E-07  0.000000E+00
        61  2.617351E-07 -5.838205E-07  0.000000E+00
        64  2.617351E-07 -5.838205E-07  0.000000E+00
        65  2.442849E-07 -5.647407E-07  0.000000E+00
        68  2.442849E-07 -5.647407E-07  0.000000E+00
        69  2.267005E-07 -5.473663E-07  0.000000E+00
        72  2.267005E-07 -5.473663E-07  0.000000E+00
        73  2.089903E-07 -5.316655E-07  0.000000E+00
        76  2.089903E-07 -5.316655E-07  0.000000E+00
        77  1.911632E-07 -5.176223E-07  0.000000E+00
        80  1.911632E-07 -5.176223E-07  0.000000E+00
        81  1.732282E-07 -5.052395E-07  0.000000E+00
        84  1.732282E-07 -5.052395E-07  0.000000E+00
        85  1.551953E-07 -4.945468E-07  0.000000E+00
        88  1.551953E-07 -4.945468E-07  0.000000E+00
        89  1.370759E-07 -4.856332E-07  0.000000E+00
        92  1.370759E-07 -4.856332E-07  0.000000E+00
        93  1.189153E-07 -4.786648E-07  0.000000E+00
        96  1.189153E-07 -4.786648E-07  0.000000E+00
        97  1.010220E-07 -4.746051E-07  0.000000E+00
       100  1.010220E-07 -4.746051E-07  0.000000E+00
       101  8.363917E-08 -4.717708E-07  0.000000E+00
       104  8.363917E-08 -4.717708E-07  0.000000E+00
       105  6.662916E-08 -4.694386E-07  0.000000E+00
       108  6.662916E-08 -4.694386E-07  0.000000E+00
       109  4.982902E-08 -4.676268E-07  0.000000E+00
       112  4.982902E-08 -4.676268E-07  0.000000E+00
       113  3.315741E-08 -4.663317E-07  0.000000E+00
       116  3.315741E-08 -4.663317E-07  0.000000E+00
       117  1.656162E-08 -4.655496E-07  0.000000E+00
       120  1.656162E-08 -4.655496E-07  0.000000E+00
       121 -2.992446E-20 -4.652853E-07  0.000000E+00
       124 -6.014440E-20 -4.652853E-07  0.000000E+00
       125 -1.656162E-08 -4.655496E-07  0.000000E+00
       128 -1.656162E-08 -4.655496E-07  0.000000E+00
       129 -3.315741E-08 -4.663317E-07  0.000000E+00
       132 -3.315741E-08 -4.663317E-07  0.000000E+00
       133 -4.982902E-08 -4.676268E-07  0.000000E+00
       136 -4.982902E-08 -4.676268E-07  0.000000E+00
       137 -6.662916E-08 -4.694386E-07  0.000000E+00
       140 -6.662916E-08 -4.694386E-07  0.000000E+00
       141 -8.363917E-08 -4.717708E-07  0.000000E+00
       144 -8.363917E-08 -4.717708E-07  0.000000E+00
       145 -1.010220E-07 -4.746051E-07  0.000000E+00
       148 -1.010220E-07 -4.746051E-07  0.000000E+00
       149 -1.189153E-07 -4.786648E-07  0.000000E+00
       152 -1.189153E-07 -4.786648E-07  0.000000E+00
       153 -1.370759E-07 -4.856332E-07  0.000000E+00
       156 -1.370759E-07 -4.856332E-07  0.000000E+00
       157 -1.551953E-07 -4.945468E-07  0.000000E+00
       160 -1.551953E-07 -4.945468E-07  0.000000E+00
       161 -1.732282E-07 -5.052395E-07  0.000000E+00
       164 -1.732282E-07 -5.052395E-07  0.000000E+00
       165 -1.911632E-07 -5.176223E-07  0.000000E+00
       168 -1.911632E-07 -5.176223E-07  0.000000E+00
       169 -2.089903E-07 -5.316655E-07  0.000000E+00
       172 -2.089903E-07 -5.316655E-07  0.000000E+00
       173 -2.267005E-07 -5.473663E-07  0.000000E+00
       176 -2.267005E-07 -5.473663E-07  0.000000E+00
       177 -2.442849E-07 -5.647407E-07  0.000000E+00
       180 -2.442849E-07 -5.647407E-07  0.000000E+00
       181 -2.617351E-07 -5.838205E-07  0.000000E+00
       184 -2.617351E-07 -5.838205E-07  0.000000E+00
       185 -2.790433E-07 -6.046517E-07  0.000000E+00
       188 -2.790433E-07 -6.046517E-07  0.000000E+00
       189 -2.962023E-07 -6.272956E-07  0.000000E+00
       192 -2.962023E-07 -6.272956E-07  0.000000E+00
       193 -3.132058E-07 -6.518305E-07  0.000000E+00
       196 -3.132058E-07 -6.518305E-07  0.000000E+00
       197 -3.300483E-07 -6.783552E-07  0.000000E+00
       200 -3.300483E-07 -6.783552E-07  0.000000E+00
       201 -3.467256E-07 -7.069936E-07  0.000000E+00
       204 -3.467256E-07 -7.069936E-07  0.000000E+00
       205 -3.632346E-07 -7.379022E-07  0.000000E+00
       208 -3.632346E-07 -7.379022E-07  0.000000E+00
       209 -3.795735E-07 -7.712808E-07  0.000000E+00
       212 -3.795735E-07 -7.712808E-07  0.000000E+00
       213 -3.957414E-07 -8.073890E-07  0.000000E+00
       216 -3.957414E-07 -8.073890E-07  0.000000E+00
       217 -4.117375E-07 -8.465719E-07  0.000000E+00
       220 -4.117375E-07 -8.465719E-07  0.000000E+00
       221 -4.275582E-07 -8.893035E-07  0.000000E+00
       224 -4.275582E-07 -8.893035E-07  0.000000E+00
       225 -4.431894E-07 -9.362658E-07  0.000000E+00
       228 -4.431894E-07 -9.362658E-07  0.000000E+00
       229 -4.585791E-07 -9.885009E-07  0.000000E+00
       232 -4.585791E-07 -9.885009E-07  0.000000E+00
       233 -4.735279E-07 -1.047794E-06  0.000000E+00
       236 -4.735279E-07 -1.047794E-06  0.000000E+00
       237 -4.870523E-07 -1.117456E-06  0.000000E+00
       240 -4.870523E-07 -1.117456E-06  0.000000E+00
       241 -4.934943E-07 -1.205747E-06  0.000000E+00
       244 -4.934943E-07 -1.205747E-06  0.000000E+00
     17383  5.135994E-10 -4.936701E-07  0.000000E+00
     17384  5.135994E-10 -4.936701E-07  0.000000E+00
     17385  5.137417E-10 -4.933289E-07  0.000000E+00
     17386  5.137417E-10 -4.933289E-07  0.000000E+00
     17387  5.132936E-10 -4.929907E-07  0.000000E+00
     17388  5.132936E-10 -4.929907E-07  0.000000E+00
     17389  5.099926E-10 -4.926563E-07  0.000000E+00
     17390  5.099926E-10 -4.926563E-07  0.000000E+00
     17391  5.018135E-10 -4.923247E-07  0.000000E+00
     17392  5.018135E-10 -4.923247E-07  0.000000E+00
     17393  4.872879E-10 -4.919939E-07  0.000000E+00
     17394  4.872879E-10 -4.919939E-07  0.000000E+00
     17395  4.654343E-10 -4.916616E-07  0.000000E+00
     17396  4.654343E-10 -4.916616E-07  0.000000E+00
     17397  4.356503E-10 -4.913253E-07  0.000000E+00
     17398  4.356503E-10 -4.913253E-07  0.000000E+00
     17399  3.976139E-10 -4.909822E-07  0.000000E+00
     17400  3.976139E-10 -4.909822E-07  0.000000E+00
     17401  3.512090E-10 -4.906297E-07  0.000000E+00
     17402  3.512090E-10 -4.906297E-07  0.000000E+00
     17403  2.964682E-10 -4.902652E-07  0.000000E+00
     17404  2.964682E-10 -4.902652E-07  0.000000E+00
     17405  2.335322E-10 -4.898857E-07  0.000000E+00
     17406  2.335322E-10 -4.898857E-07  0.000000E+00
     17407  1.626183E-10 -4.894884E-07  0.000000E+00
     17408  1.626183E-10 -4.894884E-07  0.000000E+00
     17409  8.399818E-11 -4.890703E-07  0.000000E+00
     17410  8.399818E-11 -4.890703E-07  0.000000E+00
     17411 -2.018647E-12 -4.886280E-07  0.000000E+00
     17412 -2.018647E-12 -4.886280E-07  0.000000E+00
     17413 -9.509752E-11 -4.881580E-07  0.000000E+00
     17414 -9.509752E-11 -4.881580E-07  0.000000E+00
     17415 -1.948875E-10 -4.876563E-07  0.000000E+00
     17416 -1.948875E-10 -4.876563E-07  0.000000E+00
     17417 -3.010283E-10 -4.871184E-07  0.000000E+00
     17418 -3.010283E-10 -4.871184E-07  0.000000E+00
     17419 -4.131546E-10 -4.865390E-07  0.000000E+00
     17420 -4.131546E-10 -4.865390E-07  0.000000E+00
     17421 -5.309000E-10 -4.859118E-07  0.000000E+00
     17422 -5.309000E-10 -4.859118E-07  0.000000E+00
     17423 -6.538988E-10 -4.852292E-07  0.000000E+00
     17424 -6.538988E-10 -4.852292E-07  0.000000E+00
     17425 -7.817846E-10 -4.844818E-07  0.000000E+00
     17426 -7.817846E-10 -4.844818E-07  0.000000E+00
     17427 -9.141822E-10 -4.836571E-07  0.000000E+00
     17428 -9.141822E-10 -4.836571E-07  0.000000E+00
     17429 -1.050652E-09 -4.827384E-07  0.000000E+00
     17430 -1.050652E-09 -4.827384E-07  0.000000E+00
     17431 -1.190541E-09 -4.817020E-07  0.000000E+00
     17432 -1.190541E-09 -4.817020E-07  0.000000E+00
     17433 -1.331787E-09 -4.805116E-07  0.000000E+00
     17434 -1.331787E-09 -4.805116E-07  0.000000E+00
     17435 -1.469110E-09 -4.791026E-07  0.000000E+00
     17436 -1.469110E-09 -4.791026E-07  0.000000E+00
     17437 -1.563132E-09 -4.773685E-07  0.000000E+00
     17438 -1.563132E-09 -4.773685E-07  0.000000E+00
     17439 -1.588300E-09 -4.747689E-07  0.000000E+00
     17440 -1.588300E-09 -4.747689E-07  0.000000E+00
     17441 -1.531784E-09 -4.722981E-07  0.000000E+00
     17442 -1.531784E-09 -4.722981E-07  0.000000E+00
     17443 -1.381773E-09 -4.702503E-07  0.000000E+00
     17444 -1.381773E-09 -4.702503E-07  0.000000E+00
     17445 -1.165926E-09 -4.685584E-07  0.000000E+00
     17446 -1.165926E-09 -4.685584E-07  0.000000E+00
     17447 -9.077105E-10 -4.672441E-07  0.000000E+00
     17448 -9.077105E-10 -4.672441E-07  0.000000E+00
     17449 -6.202957E-10 -4.663017E-07  0.000000E+00
     17450 -6.202957E-10 -4.663017E-07  0.000000E+00
     17451 -3.145764E-10 -4.657323E-07  0.000000E+00
     17452 -3.145764E-10 -4.657323E-07  0.000000E+00
     17453 -2.770147E-20 -4.655396E-07  0.000000E+00
     17454 -2.121030E-20 -4.655396E-07  0.000000E+00
     17455  3.145764E-10 -4.657323E-07  0.000000E+00
     17456  3.145764E-10 -4.657323E-07  0.000000E+00
     17457  6.202957E-10 -4.663017E-07  0.000000E+00
     17458  6.202957E-10 -4.663017E-07  0.000000E+00
     17459  9.077105E-10 -4.672441E-07  0.000000E+00
     17460  9.077105E-10 -4.672441E-07  0.000000E+00
     17461  1.165926E-09 -4.685584E-07  0.000000E+00
     17462  1.165926E-09 -4.685584E-07  0.000000E+00
     17463  1.381773E-09 -4.702503E-07  0.000000E+00
     17464  1.381773E-09 -4.702503E-07  0.000000E+00
     17465  1.531784E-09 -4.722981E-07  0.000000E+00
     17466  1.531784E-09 -4.722981E-07  0.000000E+00
     17467  1.588300E-09 -4.747689E-07  0.000000E+00
     17468  1.588300E-09 -4.747689E-07  0.000000E+00
     17469  1.563132E-09 -4.773685E-07  0.000000E+00
     17470  1.563132E-09 -4.773685E-07  0.000000E+00
     17471  1.469110E-09 -4.791026E-07  0.000000E+00
     17472  1.469110E-09 -4.791026E-07  0.000000E+00
     17473  1.331787E-09 -4.805116E-07  0.000000E+00
     17474  1.331787E-09 -4.805116E-07  0.000000E+00
     17475  1.190541E-09 -4.817020E-07  0.000000E+00
     17476  1.190541E-09 -4.817020E-07  0.000000E+00
     17477  1.050652E-09 -4.827384E-07  0.000000E+00
     17478  1.050652E-09 -4.827384E-07  0.000000E+00
     17479  9.141822E-10 -4.836571E-07  0.000000E+00
     17480  9.141822E-10 -4.836571E-07  0.000000E+00
     17481  7.817846E-10 -4.844818E-07  0.000000E+00
     17482  7.817846E-10 -4.844818E-07  0.000000E+00
     17483  6.538988E-10 -4.852292E-07  0.000000E+00
     17484  6.538988E-10 -4.852292E-07  0.000000E+00
     17485  5.309000E-10 -4.859118E-07  0.000000E+00
     17486  5.309000E-10 -4.859118E-07  0.000000E+00
     17487  4.131546E-10 -4.865390E-07  0.000000E+00
     17488  4.131546E-10 -4.865390E-07  0.000000E+00
     17489  3.010283E-10 -4.871184E-07  0.000000E+00
     17490  3.010283E-10 -4.871184E-07  0.000000E+00
     17491  1.948875E-10 -4.876563E-07  0.000000E+00
     17492  1.948875E-10 -4.876563E-07  0.000000E+00
     17493  9.509752E-11 -4.881580E-07  0.000000E+00
     17494  9.509752E-11 -4.881580E-07  0.000000E+00
     17495  2.018647E-12 -4.886280E-07  0.000000E+00
     17496  2.018647E-12 -4.886280E-07  0.000000E+00
     17497 -8.399818E-11 -4.890703E-07  0.000000E+00
     17498 -8.399818E-11 -4.890703E-07  0.000000E+00
     17499 -1.626183E-10 -4.894884E-07  0.000000E+00
     17500 -1.626183E-10 -4.894884E-07  0.000000E+00
     17501 -2.335322E-10 -4.898857E-07  0.000000E+00
     17502 -2.335322E-10 -4.898857E-07  0.000000E+00
     17503 -2.964682E-10 -4.902652E-07  0.000000E+00
     17504 -2.964682E-10 -4.902652E-07  0.000000E+00
     17505 -3.512090E-10 -4.906297E-07  0.000000E+00
     17506 -3.512090E-10 -4.906297E-07  0.000000E+00
     17507 -3.976139E-10 -4.909822E-07  0.000000E+00
     17508 -3.976139E-10 -4.909822E-07  0.000000E+00
     17509 -4.356503E-10 -4.913253E-07  0.000000E+00
     17510 -4.356503E-10 -4.913253E-07  0.000000E+00
     17511 -4.654343E-10 -4.916616E-07  0.000000E+00
     17512 -4.654343E-10 -4.916616E-07  0.000000E+00
     17513 -4.872879E-10 -4.919939E-07  0.000000E+00
     17514 -4.872879E-10 -4.919939E-07  0.000000E+00
     17515 -5.018135E-10 -4.923247E-07  0.000000E+00
     17516 -5.018135E-10 -4.923247E-07  0.000000E+00
     17517 -5.099926E-10 -4.926563E-07  0.000000E+00
     17518 -5.099926E-10 -4.926563E-07  0.000000E+00
     17519 -5.132936E-10 -4.929907E-07  0.000000E+00
     17520 -5.132936E-10 -4.929907E-07  0.000000E+00
     17521 -5.137417E-10 -4.933289E-07  0.000000E+00
     17522 -5.137417E-10 -4.933289E-07  0.000000E+00
     17523 -5.135994E-10 -4.936701E-07  0.000000E+00
     17524 -5.135994E-10 -4.936701E-07  0.000000E+00
