    1C
    1UUSER                                                              
    1UDATE              24.november.2019                                
    1UTIME              19:37:38                                        
    1UHOST                                                              
    1UPGM               CalculiX                                        
    1UVERSION           Version 2.16                             
    1UCOMPILETIME       So 24. Nov 18:30:58 CET 2019                    
    1UDIR                                                               
    1UDBN                                                               
    1UMAT    1COPPER                                                    
    1UMAT    2AIR                                                       
    2C                          5407                                     1
 -1      1553 1.00000E-01-1.00000E-01 0.00000E+00
 -1      1554 1.00000E-01-3.25000E-01 0.00000E+00
 -1      1555 1.00000E-01-3.25000E-01 2.00000E-01
 -1      1556 1.00000E-01-1.00000E-01 2.00000E-01
 -1      1557 0.00000E+00-1.00000E-01 0.00000E+00
 -1      1558 0.00000E+00-3.25000E-01 0.00000E+00
 -1      1559 3.46945E-18-3.25000E-01 2.00000E-01
 -1      1560 0.00000E+00-1.00000E-01 2.00000E-01
 -1      1561 1.00000E-01-3.25000E-01 4.00000E-01
 -1      1562 1.00000E-01-1.00000E-01 4.00000E-01
 -1      1563 0.00000E+00-3.25000E-01 4.00000E-01
 -1      1564 0.00000E+00-1.00000E-01 4.00000E-01
 -1      1565 1.00000E-01-3.25000E-01 6.00000E-01
 -1      1566 1.00000E-01-1.00000E-01 6.00000E-01
 -1      1567 0.00000E+00-3.25000E-01 6.00000E-01
 -1      1568 0.00000E+00-1.00000E-01 6.00000E-01
 -1      1569 1.00000E-01-3.25000E-01 8.00000E-01
 -1      1570 1.00000E-01-1.00000E-01 8.00000E-01
 -1      1571 0.00000E+00-3.25000E-01 8.00000E-01
 -1      1572 0.00000E+00-1.00000E-01 8.00000E-01
 -1      1573-1.00000E-01-1.00000E-01 0.00000E+00
 -1      1574-1.00000E-01-3.25000E-01 0.00000E+00
 -1      1575-1.00000E-01-3.25000E-01 2.00000E-01
 -1      1576-1.00000E-01-1.00000E-01 2.00000E-01
 -1      1577-1.00000E-01-3.25000E-01 4.00000E-01
 -1      1578-1.00000E-01-1.00000E-01 4.00000E-01
 -1      1579-1.00000E-01-3.25000E-01 6.00000E-01
 -1      1580-1.00000E-01-1.00000E-01 6.00000E-01
 -1      1581-1.00000E-01-3.25000E-01 8.00000E-01
 -1      1582-1.00000E-01-1.00000E-01 8.00000E-01
 -1      1583 1.00000E-01-5.50000E-01 0.00000E+00
 -1      1584 1.00000E-01-5.50000E-01 2.00000E-01
 -1      1585 0.00000E+00-5.50000E-01 0.00000E+00
 -1      1586 0.00000E+00-5.50000E-01 2.00000E-01
 -1      1587 1.00000E-01-5.50000E-01 4.00000E-01
 -1      1588 0.00000E+00-5.50000E-01 4.00000E-01
 -1      1589 1.00000E-01-5.50000E-01 6.00000E-01
 -1      1590 0.00000E+00-5.50000E-01 6.00000E-01
 -1      1591 1.00000E-01-5.50000E-01 8.00000E-01
 -1      1592 0.00000E+00-5.50000E-01 8.00000E-01
 -1      1593-1.00000E-01-5.50000E-01 0.00000E+00
 -1      1594-1.00000E-01-5.50000E-01 2.00000E-01
 -1      1595-1.00000E-01-5.50000E-01 4.00000E-01
 -1      1596-1.00000E-01-5.50000E-01 6.00000E-01
 -1      1597-1.00000E-01-5.50000E-01 8.00000E-01
 -1      1598 1.00000E-01-7.75000E-01 0.00000E+00
 -1      1599 1.00000E-01-7.75000E-01 2.00000E-01
 -1      1600 0.00000E+00-7.75000E-01 0.00000E+00
 -1      1601 3.46945E-18-7.75000E-01 2.00000E-01
 -1      1602 1.00000E-01-7.75000E-01 4.00000E-01
 -1      1603 0.00000E+00-7.75000E-01 4.00000E-01
 -1      1604 1.00000E-01-7.75000E-01 6.00000E-01
 -1      1605 0.00000E+00-7.75000E-01 6.00000E-01
 -1      1606 1.00000E-01-7.75000E-01 8.00000E-01
 -1      1607 0.00000E+00-7.75000E-01 8.00000E-01
 -1      1608-1.00000E-01-7.75000E-01 0.00000E+00
 -1      1609-1.00000E-01-7.75000E-01 2.00000E-01
 -1      1610-1.00000E-01-7.75000E-01 4.00000E-01
 -1      1611-1.00000E-01-7.75000E-01 6.00000E-01
 -1      1612-1.00000E-01-7.75000E-01 8.00000E-01
 -1      1613 1.00000E-01-1.00000E+00 0.00000E+00
 -1      1614 1.00000E-01-1.00000E+00 2.00000E-01
 -1      1615 0.00000E+00-1.00000E+00 0.00000E+00
 -1      1616 0.00000E+00-1.00000E+00 2.00000E-01
 -1      1617 1.00000E-01-1.00000E+00 4.00000E-01
 -1      1618 0.00000E+00-1.00000E+00 4.00000E-01
 -1      1619 1.00000E-01-1.00000E+00 6.00000E-01
 -1      1620 0.00000E+00-1.00000E+00 6.00000E-01
 -1      1621 1.00000E-01-1.00000E+00 8.00000E-01
 -1      1622 0.00000E+00-1.00000E+00 8.00000E-01
 -1      1623-1.00000E-01-1.00000E+00 0.00000E+00
 -1      1624-1.00000E-01-1.00000E+00 2.00000E-01
 -1      1625-1.00000E-01-1.00000E+00 4.00000E-01
 -1      1626-1.00000E-01-1.00000E+00 6.00000E-01
 -1      1627-1.00000E-01-1.00000E+00 8.00000E-01
 -1      1628 1.00000E+00 1.00000E+00 0.00000E+00
 -1      1629 1.00000E+00 7.75000E-01 0.00000E+00
 -1      1630 1.00000E+00 7.75000E-01 2.00000E-01
 -1      1631 1.00000E+00 1.00000E+00 2.00000E-01
 -1      1632 7.75000E-01 1.00000E+00 0.00000E+00
 -1      1633 7.75000E-01 7.75000E-01 0.00000E+00
 -1      1634 7.75000E-01 7.75000E-01 2.00000E-01
 -1      1635 7.75000E-01 1.00000E+00 2.00000E-01
 -1      1636 1.00000E+00 7.75000E-01 4.00000E-01
 -1      1637 1.00000E+00 1.00000E+00 4.00000E-01
 -1      1638 7.75000E-01 7.75000E-01 4.00000E-01
 -1      1639 7.75000E-01 1.00000E+00 4.00000E-01
 -1      1640 1.00000E+00 7.75000E-01 6.00000E-01
 -1      1641 1.00000E+00 1.00000E+00 6.00000E-01
 -1      1642 7.75000E-01 7.75000E-01 6.00000E-01
 -1      1643 7.75000E-01 1.00000E+00 6.00000E-01
 -1      1644 1.00000E+00 7.75000E-01 8.00000E-01
 -1      1645 1.00000E+00 1.00000E+00 8.00000E-01
 -1      1646 7.75000E-01 7.75000E-01 8.00000E-01
 -1      1647 7.75000E-01 1.00000E+00 8.00000E-01
 -1      1648 5.50000E-01 1.00000E+00 0.00000E+00
 -1      1649 5.50000E-01 7.75000E-01 0.00000E+00
 -1      1650 5.50000E-01 7.75000E-01 2.00000E-01
 -1      1651 5.50000E-01 1.00000E+00 2.00000E-01
 -1      1652 5.50000E-01 7.75000E-01 4.00000E-01
 -1      1653 5.50000E-01 1.00000E+00 4.00000E-01
 -1      1654 5.50000E-01 7.75000E-01 6.00000E-01
 -1      1655 5.50000E-01 1.00000E+00 6.00000E-01
 -1      1656 5.50000E-01 7.75000E-01 8.00000E-01
 -1      1657 5.50000E-01 1.00000E+00 8.00000E-01
 -1      1658 3.25000E-01 1.00000E+00 0.00000E+00
 -1      1659 3.25000E-01 7.75000E-01 0.00000E+00
 -1      1660 3.25000E-01 7.75000E-01 2.00000E-01
 -1      1661 3.25000E-01 1.00000E+00 2.00000E-01
 -1      1662 3.25000E-01 7.75000E-01 4.00000E-01
 -1      1663 3.25000E-01 1.00000E+00 4.00000E-01
 -1      1664 3.25000E-01 7.75000E-01 6.00000E-01
 -1      1665 3.25000E-01 1.00000E+00 6.00000E-01
 -1      1666 3.25000E-01 7.75000E-01 8.00000E-01
 -1      1667 3.25000E-01 1.00000E+00 8.00000E-01
 -1      1668 1.00000E-01 1.00000E+00 0.00000E+00
 -1      1669 1.00000E-01 7.75000E-01 0.00000E+00
 -1      1670 1.00000E-01 7.75000E-01 2.00000E-01
 -1      1671 1.00000E-01 1.00000E+00 2.00000E-01
 -1      1672 1.00000E-01 7.75000E-01 4.00000E-01
 -1      1673 1.00000E-01 1.00000E+00 4.00000E-01
 -1      1674 1.00000E-01 7.75000E-01 6.00000E-01
 -1      1675 1.00000E-01 1.00000E+00 6.00000E-01
 -1      1676 1.00000E-01 7.75000E-01 8.00000E-01
 -1      1677 1.00000E-01 1.00000E+00 8.00000E-01
 -1      1678 1.00000E+00 5.50000E-01 0.00000E+00
 -1      1679 1.00000E+00 5.50000E-01 2.00000E-01
 -1      1680 7.75000E-01 5.50000E-01 0.00000E+00
 -1      1681 7.75000E-01 5.50000E-01 2.00000E-01
 -1      1682 1.00000E+00 5.50000E-01 4.00000E-01
 -1      1683 7.75000E-01 5.50000E-01 4.00000E-01
 -1      1684 1.00000E+00 5.50000E-01 6.00000E-01
 -1      1685 7.75000E-01 5.50000E-01 6.00000E-01
 -1      1686 1.00000E+00 5.50000E-01 8.00000E-01
 -1      1687 7.75000E-01 5.50000E-01 8.00000E-01
 -1      1688 5.50000E-01 5.50000E-01 0.00000E+00
 -1      1689 5.50000E-01 5.50000E-01 2.00000E-01
 -1      1690 5.50000E-01 5.50000E-01 4.00000E-01
 -1      1691 5.50000E-01 5.50000E-01 6.00000E-01
 -1      1692 5.50000E-01 5.50000E-01 8.00000E-01
 -1      1693 3.25000E-01 5.50000E-01 0.00000E+00
 -1      1694 3.25000E-01 5.50000E-01 2.00000E-01
 -1      1695 3.25000E-01 5.50000E-01 4.00000E-01
 -1      1696 3.25000E-01 5.50000E-01 6.00000E-01
 -1      1697 3.25000E-01 5.50000E-01 8.00000E-01
 -1      1698 1.00000E-01 5.50000E-01 0.00000E+00
 -1      1699 1.00000E-01 5.50000E-01 2.00000E-01
 -1      1700 1.00000E-01 5.50000E-01 4.00000E-01
 -1      1701 1.00000E-01 5.50000E-01 6.00000E-01
 -1      1702 1.00000E-01 5.50000E-01 8.00000E-01
 -1      1703 1.00000E+00 3.25000E-01 0.00000E+00
 -1      1704 1.00000E+00 3.25000E-01 2.00000E-01
 -1      1705 7.75000E-01 3.25000E-01 0.00000E+00
 -1      1706 7.75000E-01 3.25000E-01 2.00000E-01
 -1      1707 1.00000E+00 3.25000E-01 4.00000E-01
 -1      1708 7.75000E-01 3.25000E-01 4.00000E-01
 -1      1709 1.00000E+00 3.25000E-01 6.00000E-01
 -1      1710 7.75000E-01 3.25000E-01 6.00000E-01
 -1      1711 1.00000E+00 3.25000E-01 8.00000E-01
 -1      1712 7.75000E-01 3.25000E-01 8.00000E-01
 -1      1713 5.50000E-01 3.25000E-01 0.00000E+00
 -1      1714 5.50000E-01 3.25000E-01 2.00000E-01
 -1      1715 5.50000E-01 3.25000E-01 4.00000E-01
 -1      1716 5.50000E-01 3.25000E-01 6.00000E-01
 -1      1717 5.50000E-01 3.25000E-01 8.00000E-01
 -1      1718 3.25000E-01 3.25000E-01 0.00000E+00
 -1      1719 3.25000E-01 3.25000E-01 2.00000E-01
 -1      1720 3.25000E-01 3.25000E-01 4.00000E-01
 -1      1721 3.25000E-01 3.25000E-01 6.00000E-01
 -1      1722 3.25000E-01 3.25000E-01 8.00000E-01
 -1      1723 1.00000E-01 3.25000E-01 0.00000E+00
 -1      1724 1.00000E-01 3.25000E-01 2.00000E-01
 -1      1725 1.00000E-01 3.25000E-01 4.00000E-01
 -1      1726 1.00000E-01 3.25000E-01 6.00000E-01
 -1      1727 1.00000E-01 3.25000E-01 8.00000E-01
 -1      1728 1.00000E+00 1.00000E-01 0.00000E+00
 -1      1729 1.00000E+00 1.00000E-01 2.00000E-01
 -1      1730 7.75000E-01 1.00000E-01 0.00000E+00
 -1      1731 7.75000E-01 1.00000E-01 2.00000E-01
 -1      1732 1.00000E+00 1.00000E-01 4.00000E-01
 -1      1733 7.75000E-01 1.00000E-01 4.00000E-01
 -1      1734 1.00000E+00 1.00000E-01 6.00000E-01
 -1      1735 7.75000E-01 1.00000E-01 6.00000E-01
 -1      1736 1.00000E+00 1.00000E-01 8.00000E-01
 -1      1737 7.75000E-01 1.00000E-01 8.00000E-01
 -1      1738 5.50000E-01 1.00000E-01 0.00000E+00
 -1      1739 5.50000E-01 1.00000E-01 2.00000E-01
 -1      1740 5.50000E-01 1.00000E-01 4.00000E-01
 -1      1741 5.50000E-01 1.00000E-01 6.00000E-01
 -1      1742 5.50000E-01 1.00000E-01 8.00000E-01
 -1      1743 3.25000E-01 1.00000E-01 0.00000E+00
 -1      1744 3.25000E-01 1.00000E-01 2.00000E-01
 -1      1745 3.25000E-01 1.00000E-01 4.00000E-01
 -1      1746 3.25000E-01 1.00000E-01 6.00000E-01
 -1      1747 3.25000E-01 1.00000E-01 8.00000E-01
 -1      1748 1.00000E-01 1.00000E-01 0.00000E+00
 -1      1749 1.00000E-01 1.00000E-01 2.00000E-01
 -1      1750 1.00000E-01 1.00000E-01 4.00000E-01
 -1      1751 1.00000E-01 1.00000E-01 6.00000E-01
 -1      1752 1.00000E-01 1.00000E-01 8.00000E-01
 -1      1753 1.00000E+00 0.00000E+00 0.00000E+00
 -1      1754 1.00000E+00 0.00000E+00 2.00000E-01
 -1      1755 7.75000E-01 0.00000E+00 0.00000E+00
 -1      1756 7.75000E-01 0.00000E+00 2.00000E-01
 -1      1757 1.00000E+00 0.00000E+00 4.00000E-01
 -1      1758 7.75000E-01 0.00000E+00 4.00000E-01
 -1      1759 1.00000E+00 0.00000E+00 6.00000E-01
 -1      1760 7.75000E-01 0.00000E+00 6.00000E-01
 -1      1761 1.00000E+00 0.00000E+00 8.00000E-01
 -1      1762 7.75000E-01 0.00000E+00 8.00000E-01
 -1      1763 5.50000E-01 0.00000E+00 0.00000E+00
 -1      1764 5.50000E-01 0.00000E+00 2.00000E-01
 -1      1765 5.50000E-01 0.00000E+00 4.00000E-01
 -1      1766 5.50000E-01 0.00000E+00 6.00000E-01
 -1      1767 5.50000E-01 0.00000E+00 8.00000E-01
 -1      1768 3.25000E-01-3.46945E-18 0.00000E+00
 -1      1769 3.25000E-01-3.46945E-18 2.00000E-01
 -1      1770 3.25000E-01-3.46945E-18 4.00000E-01
 -1      1771 3.25000E-01-3.46945E-18 6.00000E-01
 -1      1772 3.25000E-01-3.46945E-18 8.00000E-01
 -1      1773 1.00000E-01 0.00000E+00 0.00000E+00
 -1      1774 1.00000E-01 0.00000E+00 2.00000E-01
 -1      1775 1.00000E-01 0.00000E+00 4.00000E-01
 -1      1776 1.00000E-01 0.00000E+00 6.00000E-01
 -1      1777 1.00000E-01 0.00000E+00 8.00000E-01
 -1      1778 1.00000E+00-1.00000E-01 0.00000E+00
 -1      1779 1.00000E+00-1.00000E-01 2.00000E-01
 -1      1780 7.75000E-01-1.00000E-01 0.00000E+00
 -1      1781 7.75000E-01-1.00000E-01 2.00000E-01
 -1      1782 1.00000E+00-1.00000E-01 4.00000E-01
 -1      1783 7.75000E-01-1.00000E-01 4.00000E-01
 -1      1784 1.00000E+00-1.00000E-01 6.00000E-01
 -1      1785 7.75000E-01-1.00000E-01 6.00000E-01
 -1      1786 1.00000E+00-1.00000E-01 8.00000E-01
 -1      1787 7.75000E-01-1.00000E-01 8.00000E-01
 -1      1788 5.50000E-01-1.00000E-01 0.00000E+00
 -1      1789 5.50000E-01-1.00000E-01 2.00000E-01
 -1      1790 5.50000E-01-1.00000E-01 4.00000E-01
 -1      1791 5.50000E-01-1.00000E-01 6.00000E-01
 -1      1792 5.50000E-01-1.00000E-01 8.00000E-01
 -1      1793 3.25000E-01-1.00000E-01 0.00000E+00
 -1      1794 3.25000E-01-1.00000E-01 2.00000E-01
 -1      1795 3.25000E-01-1.00000E-01 4.00000E-01
 -1      1796 3.25000E-01-1.00000E-01 6.00000E-01
 -1      1797 3.25000E-01-1.00000E-01 8.00000E-01
 -1      1798 0.00000E+00 1.00000E+00 0.00000E+00
 -1      1799 0.00000E+00 7.75000E-01 0.00000E+00
 -1      1800 3.46945E-18 7.75000E-01 2.00000E-01
 -1      1801 0.00000E+00 1.00000E+00 2.00000E-01
 -1      1802 0.00000E+00 7.75000E-01 4.00000E-01
 -1      1803 0.00000E+00 1.00000E+00 4.00000E-01
 -1      1804 0.00000E+00 7.75000E-01 6.00000E-01
 -1      1805 0.00000E+00 1.00000E+00 6.00000E-01
 -1      1806 0.00000E+00 7.75000E-01 8.00000E-01
 -1      1807 0.00000E+00 1.00000E+00 8.00000E-01
 -1      1808-1.00000E-01 1.00000E+00 0.00000E+00
 -1      1809-1.00000E-01 7.75000E-01 0.00000E+00
 -1      1810-1.00000E-01 7.75000E-01 2.00000E-01
 -1      1811-1.00000E-01 1.00000E+00 2.00000E-01
 -1      1812-1.00000E-01 7.75000E-01 4.00000E-01
 -1      1813-1.00000E-01 1.00000E+00 4.00000E-01
 -1      1814-1.00000E-01 7.75000E-01 6.00000E-01
 -1      1815-1.00000E-01 1.00000E+00 6.00000E-01
 -1      1816-1.00000E-01 7.75000E-01 8.00000E-01
 -1      1817-1.00000E-01 1.00000E+00 8.00000E-01
 -1      1818 0.00000E+00 5.50000E-01 0.00000E+00
 -1      1819 0.00000E+00 5.50000E-01 2.00000E-01
 -1      1820 0.00000E+00 5.50000E-01 4.00000E-01
 -1      1821 0.00000E+00 5.50000E-01 6.00000E-01
 -1      1822 0.00000E+00 5.50000E-01 8.00000E-01
 -1      1823-1.00000E-01 5.50000E-01 0.00000E+00
 -1      1824-1.00000E-01 5.50000E-01 2.00000E-01
 -1      1825-1.00000E-01 5.50000E-01 4.00000E-01
 -1      1826-1.00000E-01 5.50000E-01 6.00000E-01
 -1      1827-1.00000E-01 5.50000E-01 8.00000E-01
 -1      1828 0.00000E+00 3.25000E-01 0.00000E+00
 -1      1829 3.46945E-18 3.25000E-01 2.00000E-01
 -1      1830 0.00000E+00 3.25000E-01 4.00000E-01
 -1      1831 0.00000E+00 3.25000E-01 6.00000E-01
 -1      1832 0.00000E+00 3.25000E-01 8.00000E-01
 -1      1833-1.00000E-01 3.25000E-01 0.00000E+00
 -1      1834-1.00000E-01 3.25000E-01 2.00000E-01
 -1      1835-1.00000E-01 3.25000E-01 4.00000E-01
 -1      1836-1.00000E-01 3.25000E-01 6.00000E-01
 -1      1837-1.00000E-01 3.25000E-01 8.00000E-01
 -1      1838 0.00000E+00 1.00000E-01 0.00000E+00
 -1      1839 0.00000E+00 1.00000E-01 2.00000E-01
 -1      1840 0.00000E+00 1.00000E-01 4.00000E-01
 -1      1841 0.00000E+00 1.00000E-01 6.00000E-01
 -1      1842 0.00000E+00 1.00000E-01 8.00000E-01
 -1      1843-1.00000E-01 1.00000E-01 0.00000E+00
 -1      1844-1.00000E-01 1.00000E-01 2.00000E-01
 -1      1845-1.00000E-01 1.00000E-01 4.00000E-01
 -1      1846-1.00000E-01 1.00000E-01 6.00000E-01
 -1      1847-1.00000E-01 1.00000E-01 8.00000E-01
 -1      1848-1.00000E+00 1.00000E+00 0.00000E+00
 -1      1849-7.75000E-01 1.00000E+00 0.00000E+00
 -1      1850-7.75000E-01 1.00000E+00 2.00000E-01
 -1      1851-1.00000E+00 1.00000E+00 2.00000E-01
 -1      1852-1.00000E+00 7.75000E-01 0.00000E+00
 -1      1853-7.75000E-01 7.75000E-01 0.00000E+00
 -1      1854-7.75000E-01 7.75000E-01 2.00000E-01
 -1      1855-1.00000E+00 7.75000E-01 2.00000E-01
 -1      1856-7.75000E-01 1.00000E+00 4.00000E-01
 -1      1857-1.00000E+00 1.00000E+00 4.00000E-01
 -1      1858-7.75000E-01 7.75000E-01 4.00000E-01
 -1      1859-1.00000E+00 7.75000E-01 4.00000E-01
 -1      1860-7.75000E-01 1.00000E+00 6.00000E-01
 -1      1861-1.00000E+00 1.00000E+00 6.00000E-01
 -1      1862-7.75000E-01 7.75000E-01 6.00000E-01
 -1      1863-1.00000E+00 7.75000E-01 6.00000E-01
 -1      1864-7.75000E-01 1.00000E+00 8.00000E-01
 -1      1865-1.00000E+00 1.00000E+00 8.00000E-01
 -1      1866-7.75000E-01 7.75000E-01 8.00000E-01
 -1      1867-1.00000E+00 7.75000E-01 8.00000E-01
 -1      1868-1.00000E+00 5.50000E-01 0.00000E+00
 -1      1869-7.75000E-01 5.50000E-01 0.00000E+00
 -1      1870-7.75000E-01 5.50000E-01 2.00000E-01
 -1      1871-1.00000E+00 5.50000E-01 2.00000E-01
 -1      1872-7.75000E-01 5.50000E-01 4.00000E-01
 -1      1873-1.00000E+00 5.50000E-01 4.00000E-01
 -1      1874-7.75000E-01 5.50000E-01 6.00000E-01
 -1      1875-1.00000E+00 5.50000E-01 6.00000E-01
 -1      1876-7.75000E-01 5.50000E-01 8.00000E-01
 -1      1877-1.00000E+00 5.50000E-01 8.00000E-01
 -1      1878-1.00000E+00 3.25000E-01 0.00000E+00
 -1      1879-7.75000E-01 3.25000E-01 0.00000E+00
 -1      1880-7.75000E-01 3.25000E-01 2.00000E-01
 -1      1881-1.00000E+00 3.25000E-01 2.00000E-01
 -1      1882-7.75000E-01 3.25000E-01 4.00000E-01
 -1      1883-1.00000E+00 3.25000E-01 4.00000E-01
 -1      1884-7.75000E-01 3.25000E-01 6.00000E-01
 -1      1885-1.00000E+00 3.25000E-01 6.00000E-01
 -1      1886-7.75000E-01 3.25000E-01 8.00000E-01
 -1      1887-1.00000E+00 3.25000E-01 8.00000E-01
 -1      1888-1.00000E+00 1.00000E-01 0.00000E+00
 -1      1889-7.75000E-01 1.00000E-01 0.00000E+00
 -1      1890-7.75000E-01 1.00000E-01 2.00000E-01
 -1      1891-1.00000E+00 1.00000E-01 2.00000E-01
 -1      1892-7.75000E-01 1.00000E-01 4.00000E-01
 -1      1893-1.00000E+00 1.00000E-01 4.00000E-01
 -1      1894-7.75000E-01 1.00000E-01 6.00000E-01
 -1      1895-1.00000E+00 1.00000E-01 6.00000E-01
 -1      1896-7.75000E-01 1.00000E-01 8.00000E-01
 -1      1897-1.00000E+00 1.00000E-01 8.00000E-01
 -1      1898-5.50000E-01 1.00000E+00 0.00000E+00
 -1      1899-5.50000E-01 1.00000E+00 2.00000E-01
 -1      1900-5.50000E-01 7.75000E-01 0.00000E+00
 -1      1901-5.50000E-01 7.75000E-01 2.00000E-01
 -1      1902-5.50000E-01 1.00000E+00 4.00000E-01
 -1      1903-5.50000E-01 7.75000E-01 4.00000E-01
 -1      1904-5.50000E-01 1.00000E+00 6.00000E-01
 -1      1905-5.50000E-01 7.75000E-01 6.00000E-01
 -1      1906-5.50000E-01 1.00000E+00 8.00000E-01
 -1      1907-5.50000E-01 7.75000E-01 8.00000E-01
 -1      1908-5.50000E-01 5.50000E-01 0.00000E+00
 -1      1909-5.50000E-01 5.50000E-01 2.00000E-01
 -1      1910-5.50000E-01 5.50000E-01 4.00000E-01
 -1      1911-5.50000E-01 5.50000E-01 6.00000E-01
 -1      1912-5.50000E-01 5.50000E-01 8.00000E-01
 -1      1913-5.50000E-01 3.25000E-01 0.00000E+00
 -1      1914-5.50000E-01 3.25000E-01 2.00000E-01
 -1      1915-5.50000E-01 3.25000E-01 4.00000E-01
 -1      1916-5.50000E-01 3.25000E-01 6.00000E-01
 -1      1917-5.50000E-01 3.25000E-01 8.00000E-01
 -1      1918-5.50000E-01 1.00000E-01 0.00000E+00
 -1      1919-5.50000E-01 1.00000E-01 2.00000E-01
 -1      1920-5.50000E-01 1.00000E-01 4.00000E-01
 -1      1921-5.50000E-01 1.00000E-01 6.00000E-01
 -1      1922-5.50000E-01 1.00000E-01 8.00000E-01
 -1      1923-3.25000E-01 1.00000E+00 0.00000E+00
 -1      1924-3.25000E-01 1.00000E+00 2.00000E-01
 -1      1925-3.25000E-01 7.75000E-01 0.00000E+00
 -1      1926-3.25000E-01 7.75000E-01 2.00000E-01
 -1      1927-3.25000E-01 1.00000E+00 4.00000E-01
 -1      1928-3.25000E-01 7.75000E-01 4.00000E-01
 -1      1929-3.25000E-01 1.00000E+00 6.00000E-01
 -1      1930-3.25000E-01 7.75000E-01 6.00000E-01
 -1      1931-3.25000E-01 1.00000E+00 8.00000E-01
 -1      1932-3.25000E-01 7.75000E-01 8.00000E-01
 -1      1933-3.25000E-01 5.50000E-01 0.00000E+00
 -1      1934-3.25000E-01 5.50000E-01 2.00000E-01
 -1      1935-3.25000E-01 5.50000E-01 4.00000E-01
 -1      1936-3.25000E-01 5.50000E-01 6.00000E-01
 -1      1937-3.25000E-01 5.50000E-01 8.00000E-01
 -1      1938-3.25000E-01 3.25000E-01 0.00000E+00
 -1      1939-3.25000E-01 3.25000E-01 2.00000E-01
 -1      1940-3.25000E-01 3.25000E-01 4.00000E-01
 -1      1941-3.25000E-01 3.25000E-01 6.00000E-01
 -1      1942-3.25000E-01 3.25000E-01 8.00000E-01
 -1      1943-3.25000E-01 1.00000E-01 0.00000E+00
 -1      1944-3.25000E-01 1.00000E-01 2.00000E-01
 -1      1945-3.25000E-01 1.00000E-01 4.00000E-01
 -1      1946-3.25000E-01 1.00000E-01 6.00000E-01
 -1      1947-3.25000E-01 1.00000E-01 8.00000E-01
 -1      1948-1.00000E-01 0.00000E+00 0.00000E+00
 -1      1949-1.00000E-01 0.00000E+00 2.00000E-01
 -1      1950-3.25000E-01 0.00000E+00 0.00000E+00
 -1      1951-3.25000E-01 0.00000E+00 2.00000E-01
 -1      1952-1.00000E-01 0.00000E+00 4.00000E-01
 -1      1953-3.25000E-01 0.00000E+00 4.00000E-01
 -1      1954-1.00000E-01 0.00000E+00 6.00000E-01
 -1      1955-3.25000E-01 0.00000E+00 6.00000E-01
 -1      1956-1.00000E-01 0.00000E+00 8.00000E-01
 -1      1957-3.25000E-01 0.00000E+00 8.00000E-01
 -1      1958-5.50000E-01 3.46945E-18 0.00000E+00
 -1      1959-5.50000E-01 3.46945E-18 2.00000E-01
 -1      1960-5.50000E-01 3.46945E-18 4.00000E-01
 -1      1961-5.50000E-01 3.46945E-18 6.00000E-01
 -1      1962-5.50000E-01 3.46945E-18 8.00000E-01
 -1      1963-7.75000E-01-1.73472E-18 0.00000E+00
 -1      1964-7.75000E-01-1.73472E-18 2.00000E-01
 -1      1965-7.75000E-01-1.73472E-18 4.00000E-01
 -1      1966-7.75000E-01-1.73472E-18 6.00000E-01
 -1      1967-7.75000E-01-1.73472E-18 8.00000E-01
 -1      1968-1.00000E+00 0.00000E+00 0.00000E+00
 -1      1969-1.00000E+00 0.00000E+00 2.00000E-01
 -1      1970-1.00000E+00 0.00000E+00 4.00000E-01
 -1      1971-1.00000E+00 0.00000E+00 6.00000E-01
 -1      1972-1.00000E+00 0.00000E+00 8.00000E-01
 -1      1973-3.25000E-01-1.00000E-01 0.00000E+00
 -1      1974-3.25000E-01-1.00000E-01 2.00000E-01
 -1      1975-3.25000E-01-1.00000E-01 4.00000E-01
 -1      1976-3.25000E-01-1.00000E-01 6.00000E-01
 -1      1977-3.25000E-01-1.00000E-01 8.00000E-01
 -1      1978-5.50000E-01-1.00000E-01 0.00000E+00
 -1      1979-5.50000E-01-1.00000E-01 2.00000E-01
 -1      1980-5.50000E-01-1.00000E-01 4.00000E-01
 -1      1981-5.50000E-01-1.00000E-01 6.00000E-01
 -1      1982-5.50000E-01-1.00000E-01 8.00000E-01
 -1      1983-7.75000E-01-1.00000E-01 0.00000E+00
 -1      1984-7.75000E-01-1.00000E-01 2.00000E-01
 -1      1985-7.75000E-01-1.00000E-01 4.00000E-01
 -1      1986-7.75000E-01-1.00000E-01 6.00000E-01
 -1      1987-7.75000E-01-1.00000E-01 8.00000E-01
 -1      1988-1.00000E+00-1.00000E-01 0.00000E+00
 -1      1989-1.00000E+00-1.00000E-01 2.00000E-01
 -1      1990-1.00000E+00-1.00000E-01 4.00000E-01
 -1      1991-1.00000E+00-1.00000E-01 6.00000E-01
 -1      1992-1.00000E+00-1.00000E-01 8.00000E-01
 -1      1993-1.00000E+00-1.00000E+00 0.00000E+00
 -1      1994-1.00000E+00-7.75000E-01 0.00000E+00
 -1      1995-1.00000E+00-7.75000E-01 2.00000E-01
 -1      1996-1.00000E+00-1.00000E+00 2.00000E-01
 -1      1997-7.75000E-01-1.00000E+00 0.00000E+00
 -1      1998-7.75000E-01-7.75000E-01 0.00000E+00
 -1      1999-7.75000E-01-7.75000E-01 2.00000E-01
 -1      2000-7.75000E-01-1.00000E+00 2.00000E-01
 -1      2001-1.00000E+00-7.75000E-01 4.00000E-01
 -1      2002-1.00000E+00-1.00000E+00 4.00000E-01
 -1      2003-7.75000E-01-7.75000E-01 4.00000E-01
 -1      2004-7.75000E-01-1.00000E+00 4.00000E-01
 -1      2005-1.00000E+00-7.75000E-01 6.00000E-01
 -1      2006-1.00000E+00-1.00000E+00 6.00000E-01
 -1      2007-7.75000E-01-7.75000E-01 6.00000E-01
 -1      2008-7.75000E-01-1.00000E+00 6.00000E-01
 -1      2009-1.00000E+00-7.75000E-01 8.00000E-01
 -1      2010-1.00000E+00-1.00000E+00 8.00000E-01
 -1      2011-7.75000E-01-7.75000E-01 8.00000E-01
 -1      2012-7.75000E-01-1.00000E+00 8.00000E-01
 -1      2013-5.50000E-01-1.00000E+00 0.00000E+00
 -1      2014-5.50000E-01-7.75000E-01 0.00000E+00
 -1      2015-5.50000E-01-7.75000E-01 2.00000E-01
 -1      2016-5.50000E-01-1.00000E+00 2.00000E-01
 -1      2017-5.50000E-01-7.75000E-01 4.00000E-01
 -1      2018-5.50000E-01-1.00000E+00 4.00000E-01
 -1      2019-5.50000E-01-7.75000E-01 6.00000E-01
 -1      2020-5.50000E-01-1.00000E+00 6.00000E-01
 -1      2021-5.50000E-01-7.75000E-01 8.00000E-01
 -1      2022-5.50000E-01-1.00000E+00 8.00000E-01
 -1      2023-3.25000E-01-1.00000E+00 0.00000E+00
 -1      2024-3.25000E-01-7.75000E-01 0.00000E+00
 -1      2025-3.25000E-01-7.75000E-01 2.00000E-01
 -1      2026-3.25000E-01-1.00000E+00 2.00000E-01
 -1      2027-3.25000E-01-7.75000E-01 4.00000E-01
 -1      2028-3.25000E-01-1.00000E+00 4.00000E-01
 -1      2029-3.25000E-01-7.75000E-01 6.00000E-01
 -1      2030-3.25000E-01-1.00000E+00 6.00000E-01
 -1      2031-3.25000E-01-7.75000E-01 8.00000E-01
 -1      2032-3.25000E-01-1.00000E+00 8.00000E-01
 -1      2033-1.00000E+00-5.50000E-01 0.00000E+00
 -1      2034-1.00000E+00-5.50000E-01 2.00000E-01
 -1      2035-7.75000E-01-5.50000E-01 0.00000E+00
 -1      2036-7.75000E-01-5.50000E-01 2.00000E-01
 -1      2037-1.00000E+00-5.50000E-01 4.00000E-01
 -1      2038-7.75000E-01-5.50000E-01 4.00000E-01
 -1      2039-1.00000E+00-5.50000E-01 6.00000E-01
 -1      2040-7.75000E-01-5.50000E-01 6.00000E-01
 -1      2041-1.00000E+00-5.50000E-01 8.00000E-01
 -1      2042-7.75000E-01-5.50000E-01 8.00000E-01
 -1      2043-5.50000E-01-5.50000E-01 0.00000E+00
 -1      2044-5.50000E-01-5.50000E-01 2.00000E-01
 -1      2045-5.50000E-01-5.50000E-01 4.00000E-01
 -1      2046-5.50000E-01-5.50000E-01 6.00000E-01
 -1      2047-5.50000E-01-5.50000E-01 8.00000E-01
 -1      2048-3.25000E-01-5.50000E-01 0.00000E+00
 -1      2049-3.25000E-01-5.50000E-01 2.00000E-01
 -1      2050-3.25000E-01-5.50000E-01 4.00000E-01
 -1      2051-3.25000E-01-5.50000E-01 6.00000E-01
 -1      2052-3.25000E-01-5.50000E-01 8.00000E-01
 -1      2053-1.00000E+00-3.25000E-01 0.00000E+00
 -1      2054-1.00000E+00-3.25000E-01 2.00000E-01
 -1      2055-7.75000E-01-3.25000E-01 0.00000E+00
 -1      2056-7.75000E-01-3.25000E-01 2.00000E-01
 -1      2057-1.00000E+00-3.25000E-01 4.00000E-01
 -1      2058-7.75000E-01-3.25000E-01 4.00000E-01
 -1      2059-1.00000E+00-3.25000E-01 6.00000E-01
 -1      2060-7.75000E-01-3.25000E-01 6.00000E-01
 -1      2061-1.00000E+00-3.25000E-01 8.00000E-01
 -1      2062-7.75000E-01-3.25000E-01 8.00000E-01
 -1      2063-5.50000E-01-3.25000E-01 0.00000E+00
 -1      2064-5.50000E-01-3.25000E-01 2.00000E-01
 -1      2065-5.50000E-01-3.25000E-01 4.00000E-01
 -1      2066-5.50000E-01-3.25000E-01 6.00000E-01
 -1      2067-5.50000E-01-3.25000E-01 8.00000E-01
 -1      2068-3.25000E-01-3.25000E-01 0.00000E+00
 -1      2069-3.25000E-01-3.25000E-01 2.00000E-01
 -1      2070-3.25000E-01-3.25000E-01 4.00000E-01
 -1      2071-3.25000E-01-3.25000E-01 6.00000E-01
 -1      2072-3.25000E-01-3.25000E-01 8.00000E-01
 -1      2073 1.00000E+00-1.00000E+00 0.00000E+00
 -1      2074 7.75000E-01-1.00000E+00 0.00000E+00
 -1      2075 7.75000E-01-1.00000E+00 2.00000E-01
 -1      2076 1.00000E+00-1.00000E+00 2.00000E-01
 -1      2077 1.00000E+00-7.75000E-01 0.00000E+00
 -1      2078 7.75000E-01-7.75000E-01 0.00000E+00
 -1      2079 7.75000E-01-7.75000E-01 2.00000E-01
 -1      2080 1.00000E+00-7.75000E-01 2.00000E-01
 -1      2081 7.75000E-01-1.00000E+00 4.00000E-01
 -1      2082 1.00000E+00-1.00000E+00 4.00000E-01
 -1      2083 7.75000E-01-7.75000E-01 4.00000E-01
 -1      2084 1.00000E+00-7.75000E-01 4.00000E-01
 -1      2085 7.75000E-01-1.00000E+00 6.00000E-01
 -1      2086 1.00000E+00-1.00000E+00 6.00000E-01
 -1      2087 7.75000E-01-7.75000E-01 6.00000E-01
 -1      2088 1.00000E+00-7.75000E-01 6.00000E-01
 -1      2089 7.75000E-01-1.00000E+00 8.00000E-01
 -1      2090 1.00000E+00-1.00000E+00 8.00000E-01
 -1      2091 7.75000E-01-7.75000E-01 8.00000E-01
 -1      2092 1.00000E+00-7.75000E-01 8.00000E-01
 -1      2093 1.00000E+00-5.50000E-01 0.00000E+00
 -1      2094 7.75000E-01-5.50000E-01 0.00000E+00
 -1      2095 7.75000E-01-5.50000E-01 2.00000E-01
 -1      2096 1.00000E+00-5.50000E-01 2.00000E-01
 -1      2097 7.75000E-01-5.50000E-01 4.00000E-01
 -1      2098 1.00000E+00-5.50000E-01 4.00000E-01
 -1      2099 7.75000E-01-5.50000E-01 6.00000E-01
 -1      2100 1.00000E+00-5.50000E-01 6.00000E-01
 -1      2101 7.75000E-01-5.50000E-01 8.00000E-01
 -1      2102 1.00000E+00-5.50000E-01 8.00000E-01
 -1      2103 1.00000E+00-3.25000E-01 0.00000E+00
 -1      2104 7.75000E-01-3.25000E-01 0.00000E+00
 -1      2105 7.75000E-01-3.25000E-01 2.00000E-01
 -1      2106 1.00000E+00-3.25000E-01 2.00000E-01
 -1      2107 7.75000E-01-3.25000E-01 4.00000E-01
 -1      2108 1.00000E+00-3.25000E-01 4.00000E-01
 -1      2109 7.75000E-01-3.25000E-01 6.00000E-01
 -1      2110 1.00000E+00-3.25000E-01 6.00000E-01
 -1      2111 7.75000E-01-3.25000E-01 8.00000E-01
 -1      2112 1.00000E+00-3.25000E-01 8.00000E-01
 -1      2113 5.50000E-01-1.00000E+00 0.00000E+00
 -1      2114 5.50000E-01-1.00000E+00 2.00000E-01
 -1      2115 5.50000E-01-7.75000E-01 0.00000E+00
 -1      2116 5.50000E-01-7.75000E-01 2.00000E-01
 -1      2117 5.50000E-01-1.00000E+00 4.00000E-01
 -1      2118 5.50000E-01-7.75000E-01 4.00000E-01
 -1      2119 5.50000E-01-1.00000E+00 6.00000E-01
 -1      2120 5.50000E-01-7.75000E-01 6.00000E-01
 -1      2121 5.50000E-01-1.00000E+00 8.00000E-01
 -1      2122 5.50000E-01-7.75000E-01 8.00000E-01
 -1      2123 5.50000E-01-5.50000E-01 0.00000E+00
 -1      2124 5.50000E-01-5.50000E-01 2.00000E-01
 -1      2125 5.50000E-01-5.50000E-01 4.00000E-01
 -1      2126 5.50000E-01-5.50000E-01 6.00000E-01
 -1      2127 5.50000E-01-5.50000E-01 8.00000E-01
 -1      2128 5.50000E-01-3.25000E-01 0.00000E+00
 -1      2129 5.50000E-01-3.25000E-01 2.00000E-01
 -1      2130 5.50000E-01-3.25000E-01 4.00000E-01
 -1      2131 5.50000E-01-3.25000E-01 6.00000E-01
 -1      2132 5.50000E-01-3.25000E-01 8.00000E-01
 -1      2133 3.25000E-01-1.00000E+00 0.00000E+00
 -1      2134 3.25000E-01-1.00000E+00 2.00000E-01