    1C
    1UModel: beam     Date: 10-Mar-1998                                 
    1UUSER                                                              
    1UDATE              24.november.2019                                
    1UTIME              19:37:45                                        
    1UHOST                                                              
    1UPGM               CalculiX                                        
    1UVERSION           Version 2.16                             
    1UCOMPILETIME       So 24. Nov 18:30:58 CET 2019                    
    1UDIR                                                               
    1UDBN                                                               
    1UMAT    1UNDO_NLGEOM_LIN_ISO_EL_1                                  
    2C                           261                                     1
 -1         1 0.00000E+00 0.00000E+00 0.00000E+00
 -1         2 1.00000E+00 0.00000E+00 0.00000E+00
 -1         3 1.00000E+00 1.00000E+00 0.00000E+00
 -1         4 0.00000E+00 1.00000E+00 0.00000E+00
 -1         5 0.00000E+00 0.00000E+00 8.00000E+00
 -1         6 1.00000E+00 0.00000E+00 8.00000E+00
 -1         7 1.00000E+00 1.00000E+00 8.00000E+00
 -1         8 0.00000E+00 1.00000E+00 8.00000E+00
 -1         9 2.50000E-01 0.00000E+00 0.00000E+00
 -1        10 5.00000E-01 0.00000E+00 0.00000E+00
 -1        11 7.50000E-01 0.00000E+00 0.00000E+00
 -1        12 1.00000E+00 2.50000E-01 0.00000E+00
 -1        13 1.00000E+00 5.00000E-01 0.00000E+00
 -1        14 1.00000E+00 7.50000E-01 0.00000E+00
 -1        15 7.50000E-01 1.00000E+00 0.00000E+00
 -1        16 5.00000E-01 1.00000E+00 0.00000E+00
 -1        17 2.50000E-01 1.00000E+00 0.00000E+00
 -1        18 0.00000E+00 7.50000E-01 0.00000E+00
 -1        19 0.00000E+00 5.00000E-01 0.00000E+00
 -1        20 0.00000E+00 2.50000E-01 0.00000E+00
 -1        21 2.50000E-01 0.00000E+00 8.00000E+00
 -1        22 5.00000E-01 0.00000E+00 8.00000E+00
 -1        23 7.50000E-01 0.00000E+00 8.00000E+00
 -1        24 1.00000E+00 2.50000E-01 8.00000E+00
 -1        25 1.00000E+00 5.00000E-01 8.00000E+00
 -1        26 1.00000E+00 7.50000E-01 8.00000E+00
 -1        27 7.50000E-01 1.00000E+00 8.00000E+00
 -1        28 5.00000E-01 1.00000E+00 8.00000E+00
 -1        29 2.50000E-01 1.00000E+00 8.00000E+00
 -1        30 0.00000E+00 7.50000E-01 8.00000E+00
 -1        31 0.00000E+00 5.00000E-01 8.00000E+00
 -1        32 0.00000E+00 2.50000E-01 8.00000E+00
 -1        33 1.00000E+00 0.00000E+00 5.00000E-01
 -1        34 1.00000E+00 0.00000E+00 1.00000E+00
 -1        35 1.00000E+00 0.00000E+00 1.50000E+00
 -1        36 1.00000E+00 0.00000E+00 2.00000E+00
 -1        37 1.00000E+00 0.00000E+00 2.50000E+00
 -1        38 1.00000E+00 0.00000E+00 3.00000E+00
 -1        39 1.00000E+00 0.00000E+00 3.50000E+00
 -1        40 1.00000E+00 0.00000E+00 4.00000E+00
 -1        41 1.00000E+00 0.00000E+00 4.50000E+00
 -1        42 1.00000E+00 0.00000E+00 5.00000E+00
 -1        43 1.00000E+00 0.00000E+00 5.50000E+00
 -1        44 1.00000E+00 0.00000E+00 6.00000E+00
 -1        45 1.00000E+00 0.00000E+00 6.50000E+00
 -1        46 1.00000E+00 0.00000E+00 7.00000E+00
 -1        47 1.00000E+00 0.00000E+00 7.50000E+00
 -1        48 0.00000E+00 0.00000E+00 7.50000E+00
 -1        49 0.00000E+00 0.00000E+00 7.00000E+00
 -1        50 0.00000E+00 0.00000E+00 6.50000E+00
 -1        51 0.00000E+00 0.00000E+00 6.00000E+00
 -1        52 0.00000E+00 0.00000E+00 5.50000E+00
 -1        53 0.00000E+00 0.00000E+00 5.00000E+00
 -1        54 0.00000E+00 0.00000E+00 4.50000E+00
 -1        55 0.00000E+00 0.00000E+00 4.00000E+00
 -1        56 0.00000E+00 0.00000E+00 3.50000E+00
 -1        57 0.00000E+00 0.00000E+00 3.00000E+00
 -1        58 0.00000E+00 0.00000E+00 2.50000E+00
 -1        59 0.00000E+00 0.00000E+00 2.00000E+00
 -1        60 0.00000E+00 0.00000E+00 1.50000E+00
 -1        61 0.00000E+00 0.00000E+00 1.00000E+00
 -1        62 0.00000E+00 0.00000E+00 5.00000E-01
 -1        63 1.00000E+00 1.00000E+00 5.00000E-01
 -1        64 1.00000E+00 1.00000E+00 1.00000E+00
 -1        65 1.00000E+00 1.00000E+00 1.50000E+00
 -1        66 1.00000E+00 1.00000E+00 2.00000E+00
 -1        67 1.00000E+00 1.00000E+00 2.50000E+00
 -1        68 1.00000E+00 1.00000E+00 3.00000E+00
 -1        69 1.00000E+00 1.00000E+00 3.50000E+00
 -1        70 1.00000E+00 1.00000E+00 4.00000E+00
 -1        71 1.00000E+00 1.00000E+00 4.50000E+00
 -1        72 1.00000E+00 1.00000E+00 5.00000E+00
 -1        73 1.00000E+00 1.00000E+00 5.50000E+00
 -1        74 1.00000E+00 1.00000E+00 6.00000E+00
 -1        75 1.00000E+00 1.00000E+00 6.50000E+00
 -1        76 1.00000E+00 1.00000E+00 7.00000E+00
 -1        77 1.00000E+00 1.00000E+00 7.50000E+00
 -1        78 0.00000E+00 1.00000E+00 5.00000E-01
 -1        79 0.00000E+00 1.00000E+00 1.00000E+00
 -1        80 0.00000E+00 1.00000E+00 1.50000E+00
 -1        81 0.00000E+00 1.00000E+00 2.00000E+00
 -1        82 0.00000E+00 1.00000E+00 2.50000E+00
 -1        83 0.00000E+00 1.00000E+00 3.00000E+00
 -1        84 0.00000E+00 1.00000E+00 3.50000E+00
 -1        85 0.00000E+00 1.00000E+00 4.00000E+00
 -1        86 0.00000E+00 1.00000E+00 4.50000E+00
 -1        87 0.00000E+00 1.00000E+00 5.00000E+00
 -1        88 0.00000E+00 1.00000E+00 5.50000E+00
 -1        89 0.00000E+00 1.00000E+00 6.00000E+00
 -1        90 0.00000E+00 1.00000E+00 6.50000E+00
 -1        91 0.00000E+00 1.00000E+00 7.00000E+00
 -1        92 0.00000E+00 1.00000E+00 7.50000E+00
 -1        93 5.00000E-01 2.50000E-01 0.00000E+00
 -1        94 2.50000E-01 5.00000E-01 0.00000E+00
 -1        95 5.00000E-01 5.00000E-01 0.00000E+00
 -1        96 7.50000E-01 5.00000E-01 0.00000E+00
 -1        97 5.00000E-01 7.50000E-01 0.00000E+00
 -1        98 5.00000E-01 2.50000E-01 8.00000E+00
 -1        99 2.50000E-01 5.00000E-01 8.00000E+00
 -1       100 5.00000E-01 5.00000E-01 8.00000E+00
 -1       101 7.50000E-01 5.00000E-01 8.00000E+00
 -1       102 5.00000E-01 7.50000E-01 8.00000E+00
 -1       103 5.00000E-01 0.00000E+00 5.00000E-01
 -1       104 2.50000E-01 0.00000E+00 1.00000E+00
 -1       105 5.00000E-01 0.00000E+00 1.00000E+00
 -1       106 7.50000E-01 0.00000E+00 1.00000E+00
 -1       107 5.00000E-01 0.00000E+00 1.50000E+00
 -1       108 2.50000E-01 0.00000E+00 2.00000E+00
 -1       109 5.00000E-01 0.00000E+00 2.00000E+00
 -1       110 7.50000E-01 0.00000E+00 2.00000E+00
 -1       111 5.00000E-01 0.00000E+00 2.50000E+00
 -1       112 2.50000E-01 0.00000E+00 3.00000E+00
 -1       113 5.00000E-01 0.00000E+00 3.00000E+00
 -1       114 7.50000E-01 0.00000E+00 3.00000E+00
 -1       115 5.00000E-01 0.00000E+00 3.50000E+00
 -1       116 2.50000E-01 0.00000E+00 4.00000E+00
 -1       117 5.00000E-01 0.00000E+00 4.00000E+00
 -1       118 7.50000E-01 0.00000E+00 4.00000E+00
 -1       119 5.00000E-01 0.00000E+00 4.50000E+00
 -1       120 2.50000E-01 0.00000E+00 5.00000E+00
 -1       121 5.00000E-01 0.00000E+00 5.00000E+00
 -1       122 7.50000E-01 0.00000E+00 5.00000E+00
 -1       123 5.00000E-01 0.00000E+00 5.50000E+00
 -1       124 2.50000E-01 0.00000E+00 6.00000E+00
 -1       125 5.00000E-01 0.00000E+00 6.00000E+00
 -1       126 7.50000E-01 0.00000E+00 6.00000E+00
 -1       127 5.00000E-01 0.00000E+00 6.50000E+00
 -1       128 2.50000E-01 0.00000E+00 7.00000E+00
 -1       129 5.00000E-01 0.00000E+00 7.00000E+00
 -1       130 7.50000E-01 0.00000E+00 7.00000E+00
 -1       131 5.00000E-01 0.00000E+00 7.50000E+00
 -1       132 1.00000E+00 5.00000E-01 5.00000E-01
 -1       133 1.00000E+00 2.50000E-01 1.00000E+00
 -1       134 1.00000E+00 5.00000E-01 1.00000E+00
 -1       135 1.00000E+00 7.50000E-01 1.00000E+00
 -1       136 1.00000E+00 5.00000E-01 1.50000E+00
 -1       137 1.00000E+00 2.50000E-01 2.00000E+00
 -1       138 1.00000E+00 5.00000E-01 2.00000E+00
 -1       139 1.00000E+00 7.50000E-01 2.00000E+00
 -1       140 1.00000E+00 5.00000E-01 2.50000E+00
 -1       141 1.00000E+00 2.50000E-01 3.00000E+00
 -1       142 1.00000E+00 5.00000E-01 3.00000E+00
 -1       143 1.00000E+00 7.50000E-01 3.00000E+00
 -1       144 1.00000E+00 5.00000E-01 3.50000E+00
 -1       145 1.00000E+00 2.50000E-01 4.00000E+00
 -1       146 1.00000E+00 5.00000E-01 4.00000E+00
 -1       147 1.00000E+00 7.50000E-01 4.00000E+00
 -1       148 1.00000E+00 5.00000E-01 4.50000E+00
 -1       149 1.00000E+00 2.50000E-01 5.00000E+00
 -1       150 1.00000E+00 5.00000E-01 5.00000E+00
 -1       151 1.00000E+00 7.50000E-01 5.00000E+00
 -1       152 1.00000E+00 5.00000E-01 5.50000E+00
 -1       153 1.00000E+00 2.50000E-01 6.00000E+00
 -1       154 1.00000E+00 5.00000E-01 6.00000E+00
 -1       155 1.00000E+00 7.50000E-01 6.00000E+00
 -1       156 1.00000E+00 5.00000E-01 6.50000E+00
 -1       157 1.00000E+00 2.50000E-01 7.00000E+00
 -1       158 1.00000E+00 5.00000E-01 7.00000E+00
 -1       159 1.00000E+00 7.50000E-01 7.00000E+00
 -1       160 1.00000E+00 5.00000E-01 7.50000E+00
 -1       161 5.00000E-01 1.00000E+00 5.00000E-01
 -1       162 7.50000E-01 1.00000E+00 1.00000E+00
 -1       163 5.00000E-01 1.00000E+00 1.00000E+00
 -1       164 2.50000E-01 1.00000E+00 1.00000E+00
 -1       165 5.00000E-01 1.00000E+00 1.50000E+00
 -1       166 7.50000E-01 1.00000E+00 2.00000E+00
 -1       167 5.00000E-01 1.00000E+00 2.00000E+00
 -1       168 2.50000E-01 1.00000E+00 2.00000E+00
 -1       169 5.00000E-01 1.00000E+00 2.50000E+00
 -1       170 7.50000E-01 1.00000E+00 3.00000E+00
 -1       171 5.00000E-01 1.00000E+00 3.00000E+00
 -1       172 2.50000E-01 1.00000E+00 3.00000E+00
 -1       173 5.00000E-01 1.00000E+00 3.50000E+00
 -1       174 7.50000E-01 1.00000E+00 4.00000E+00
 -1       175 5.00000E-01 1.00000E+00 4.00000E+00
 -1       176 2.50000E-01 1.00000E+00 4.00000E+00
 -1       177 5.00000E-01 1.00000E+00 4.50000E+00
 -1       178 7.50000E-01 1.00000E+00 5.00000E+00
 -1       179 5.00000E-01 1.00000E+00 5.00000E+00
 -1       180 2.50000E-01 1.00000E+00 5.00000E+00
 -1       181 5.00000E-01 1.00000E+00 5.50000E+00
 -1       182 7.50000E-01 1.00000E+00 6.00000E+00
 -1       183 5.00000E-01 1.00000E+00 6.00000E+00
 -1       184 2.50000E-01 1.00000E+00 6.00000E+00
 -1       185 5.00000E-01 1.00000E+00 6.50000E+00
 -1       186 7.50000E-01 1.00000E+00 7.00000E+00
 -1       187 5.00000E-01 1.00000E+00 7.00000E+00
 -1       188 2.50000E-01 1.00000E+00 7.00000E+00
 -1       189 5.00000E-01 1.00000E+00 7.50000E+00
 -1       190 0.00000E+00 5.00000E-01 5.00000E-01
 -1       191 0.00000E+00 7.50000E-01 1.00000E+00
 -1       192 0.00000E+00 5.00000E-01 1.00000E+00
 -1       193 0.00000E+00 2.50000E-01 1.00000E+00
 -1       194 0.00000E+00 5.00000E-01 1.50000E+00
 -1       195 0.00000E+00 7.50000E-01 2.00000E+00
 -1       196 0.00000E+00 5.00000E-01 2.00000E+00
 -1       197 0.00000E+00 2.50000E-01 2.00000E+00
 -1       198 0.00000E+00 5.00000E-01 2.50000E+00
 -1       199 0.00000E+00 7.50000E-01 3.00000E+00
 -1       200 0.00000E+00 5.00000E-01 3.00000E+00
 -1       201 0.00000E+00 2.50000E-01 3.00000E+00
 -1       202 0.00000E+00 5.00000E-01 3.50000E+00
 -1       203 0.00000E+00 7.50000E-01 4.00000E+00
 -1       204 0.00000E+00 5.00000E-01 4.00000E+00
 -1       205 0.00000E+00 2.50000E-01 4.00000E+00
 -1       206 0.00000E+00 5.00000E-01 4.50000E+00
 -1       207 0.00000E+00 7.50000E-01 5.00000E+00
 -1       208 0.00000E+00 5.00000E-01 5.00000E+00
 -1       209 0.00000E+00 2.50000E-01 5.00000E+00
 -1       210 0.00000E+00 5.00000E-01 5.50000E+00
 -1       211 0.00000E+00 7.50000E-01 6.00000E+00
 -1       212 0.00000E+00 5.00000E-01 6.00000E+00
 -1       213 0.00000E+00 2.50000E-01 6.00000E+00
 -1       214 0.00000E+00 5.00000E-01 6.50000E+00
 -1       215 0.00000E+00 7.50000E-01 7.00000E+00
 -1       216 0.00000E+00 5.00000E-01 7.00000E+00
 -1       217 0.00000E+00 2.50000E-01 7.00000E+00
 -1       218 0.00000E+00 5.00000E-01 7.50000E+00
 -1       219 5.00000E-01 5.00000E-01 5.00000E-01
 -1       220 5.00000E-01 2.50000E-01 1.00000E+00
 -1       221 2.50000E-01 5.00000E-01 1.00000E+00
 -1       222 5.00000E-01 5.00000E-01 1.00000E+00
 -1       223 7.50000E-01 5.00000E-01 1.00000E+00
 -1       224 5.00000E-01 7.50000E-01 1.00000E+00
 -1       225 5.00000E-01 5.00000E-01 1.50000E+00
 -1       226 5.00000E-01 2.50000E-01 2.00000E+00
 -1       227 2.50000E-01 5.00000E-01 2.00000E+00
 -1       228 5.00000E-01 5.00000E-01 2.00000E+00
 -1       229 7.50000E-01 5.00000E-01 2.00000E+00
 -1       230 5.00000E-01 7.50000E-01 2.00000E+00
 -1       231 5.00000E-01 5.00000E-01 2.50000E+00
 -1       232 5.00000E-01 2.50000E-01 3.00000E+00
 -1       233 2.50000E-01 5.00000E-01 3.00000E+00
 -1       234 5.00000E-01 5.00000E-01 3.00000E+00
 -1       235 7.50000E-01 5.00000E-01 3.00000E+00
 -1       236 5.00000E-01 7.50000E-01 3.00000E+00
 -1       237 5.00000E-01 5.00000E-01 3.50000E+00
 -1       238 5.00000E-01 2.50000E-01 4.00000E+00
 -1       239 2.50000E-01 5.00000E-01 4.00000E+00
 -1       240 5.00000E-01 5.00000E-01 4.00000E+00
 -1       241 7.50000E-01 5.00000E-01 4.00000E+00
 -1       242 5.00000E-01 7.50000E-01 4.00000E+00
 -1       243 5.00000E-01 5.00000E-01 4.50000E+00
 -1       244 5.00000E-01 2.50000E-01 5.00000E+00
 -1       245 2.50000E-01 5.00000E-01 5.00000E+00
 -1       246 5.00000E-01 5.00000E-01 5.00000E+00
 -1       247 7.50000E-01 5.00000E-01 5.00000E+00
 -1       248 5.00000E-01 7.50000E-01 5.00000E+00
 -1       249 5.00000E-01 5.00000E-01 5.50000E+00
 -1       250 5.00000E-01 2.50000E-01 6.00000E+00
 -1       251 2.50000E-01 5.00000E-01 6.00000E+00
 -1       252 5.00000E-01 5.00000E-01 6.00000E+00
 -1       253 7.50000E-01 5.00000E-01 6.00000E+00
 -1       254 5.00000E-01 7.50000E-01 6.00000E+00
 -1       255 5.00000E-01 5.00000E-01 6.50000E+00
 -1       256 5.00000E-01 2.50000E-01 7.00000E+00
 -1       257 2.50000E-01 5.00000E-01 7.00000E+00
 -1       258 5.00000E-01 5.00000E-01 7.00000E+00
 -1       259 7.50000E-01 5.00000E-01 7.00000E+00
 -1       260 5.00000E-01 7.50000E-01 7.00000E+00
 -1       261 5.00000E-01 5.00000E-01 7.50000E+00
 -3
    3C                            32                                     1
 -1         1    4    0    1
 -2         1        10        95        19        61       105       222       192         9        93
 -2        94        20        62       103       219       190       104       220       221       193
 -1         2    4    0    1
 -2        10         2        13        95       105        34       134       222        11        12
 -2        96        93       103        33       132       219       106       133       223       220
 -1         3    4    0    1
 -2        19        95        16         4       192       222       163        79        94        97
 -2        17        18       190       219       161        78       221       224       164       191
 -1         4    4    0    1
 -2        95        13         3        16       222       134        64       163        96        14
 -2        15        97       219       132        63       161       223       135       162       224
 -1         5    4    0    1
 -2        61       105       222       192        59       109       228       196       104       220
 -2       221       193        60       107       225       194       108       226       227       197
 -1         6    4    0    1
 -2       105        34       134       222       109        36       138       228       106       133
 -2       223       220       107        35       136       225       110       137       229       226
 -1         7    4    0    1
 -2       192       222       163        79       196       228       167        81       221       224
 -2       164       191       194       225       165        80       227       230       168       195
 -1         8    4    0    1
 -2       222       134        64       163       228       138        66       167       223       135
 -2       162       224       225       136        65       165       229       139       166       230
 -1         9    4    0    1
 -2        59       109       228       196        57       113       234       200       108       226
 -2       227       197        58       111       231       198       112       232       233       201
 -1        10    4    0    1
 -2       109        36       138       228       113        38       142       234       110       137
 -2       229       226       111        37       140       231       114       141       235       232
 -1        11    4    0    1
 -2       196       228       167        81       200       234       171        83       227       230
 -2       168       195       198       231       169        82       233       236       172       199
 -1        12    4    0    1
 -2       228       138        66       167       234       142        68       171       229       139
 -2       166       230       231       140        67       169       235       143       170       236
 -1        13    4    0    1
 -2        57       113       234       200        55       117       240       204       112       232
 -2       233       201        56       115       237       202       116       238       239       205
 -1        14    4    0    1
 -2       113        38       142       234       117        40       146       240       114       141
 -2       235       232       115        39       144       237       118       145       241       238
 -1        15    4    0    1
 -2       200       234       171        83       204       240       175        85       233       236
 -2       172       199       202       237       173        84       239       242       176       203
 -1        16    4    0    1
 -2       234       142        68       171       240       146        70       175       235       143
 -2       170       236       237       144        69       173       241       147       174       242
 -1        17    4    0    1
 -2        55       117       240       204        53       121       246       208       116       238
 -2       239       205        54       119       243       206       120       244       245       209
 -1        18    4    0    1
 -2       117        40       146       240       121        42       150       246       118       145
 -2       241       238       119        41       148       243       122       149       247       244
 -1        19    4    0    1
 -2       204       240       175        85       208       246       179        87       239       242
 -2       176       203       206       243       177        86       245       248       180       207
 -1        20    4    0    1
 -2       240       146        70       175       246       150        72       179       241       147
 -2       174       242       243       148        71       177       247       151       178       248
 -1        21    4    0    1
 -2        53       121       246       208        51       125       252       212       120       244
 -2       245       209        52       123       249       210       124       250       251       213
 -1        22    4    0    1
 -2       121        42       150       246       125        44       154       252       122       149
 -2       247       244       123        43       152       249       126       153       253       250
 -1        23    4    0    1
 -2       208       246       179        87       212       252       183        89       245       248
 -2       180       207       210       249       181        88       251       254       184       211
 -1        24    4    0    1
 -2       246       150        72       179       252       154        74       183       247       151
 -2       178       248       249       152        73       181       253       155       182       254
 -1        25    4    0    1
 -2        51       125       252       212        49       129       258       216       124       250
 -2       251       213        50       127       255       214       128       256       257       217
 -1        26    4    0    1
 -2       125        44       154       252       129        46       158       258       126       153
 -2       253       250       127        45       156       255       130       157       259       256
 -1        27    4    0    1
 -2       212       252       183        89       216       258       187        91       251       254
 -2       184       211       214       255       185        90       257       260       188       215
 -1        28    4    0    1
 -2       252       154        74       183       258       158        76       187       253       155
 -2       182       254       255       156        75       185       259       159       186       260
 -1        29    4    0    1
 -2        49       129       258       216         5        22       100        31       128       256
 -2       257       217        48       131       261       218        21        98        99        32
 -1        30    4    0    1
 -2       129        46       158       258        22         6        25       100       130       157
 -2       259       256       131        47       160       261        23        24       101        98
 -1        31    4    0    1
 -2       216       258       187        91        31       100        28         8       257       260
 -2       188       215       218       261       189        92        99       102        29        30
 -1        32    4    0    1
 -2       258       158        76       187       100        25         7        28       259       159
 -2       186       260       261       160        77       189       101        26        27       102
 -3
    1PSTEP                         1           1           1          
  100CL  101 1.000000000         261                     0    1           1
 -4  TOSTRAIN    6    1
 -5  EXX         1    4    1    1
 -5  EYY         1    4    2    2
 -5  EZZ         1    4    3    3
 -5  EXY         1    4    1    2
 -5  EYZ         1    4    2    3
 -5  EZX         1    4    3    1
 -1         1 2.55551E-13 5.55623E-13-2.08239E-12 3.57665E-13 9.77471E-13-2.98795E-13
 -1         2 2.56947E-13 5.57580E-13-2.08114E-12-3.57621E-13 9.77591E-13 2.98947E-13
 -1         3 2.56646E-13 5.56892E-13-2.08155E-12 3.57665E-13-9.77424E-13 2.98891E-13
 -1         4 2.56719E-13 5.56851E-13-2.08153E-12-3.57594E-13-9.77538E-13-2.98784E-13
 -1         5-4.04393E-13-4.04357E-13 2.96899E-12 3.49393E-13 2.58566E-12 2.58581E-12
 -1         6-4.05630E-13-4.06505E-13 2.96865E-12-3.49184E-13 2.58586E-12-2.58563E-12
 -1         7-4.05181E-13-4.03856E-13 2.96964E-12 3.49476E-13-2.58595E-12-2.58571E-12
 -1         8-4.04964E-13-4.04472E-13 2.96933E-12-3.48958E-13-2.58601E-12 2.58561E-12
 -1         9 3.75144E-14 8.21515E-13-2.13494E-12 2.93305E-13 8.88913E-13-1.14428E-13
 -1        10-1.80607E-13 1.08726E-12-2.18818E-12 2.72824E-17 8.00351E-13-1.46692E-16
 -1        11 3.81284E-14 8.22344E-13-2.13501E-12-2.93255E-13 8.88969E-13 1.14358E-13
 -1        12-2.39487E-13-3.40556E-13 1.45490E-12 3.34787E-14-1.21156E-12-1.59496E-13
 -1        13-7.36040E-13-1.23806E-12 4.99093E-12 4.97843E-17-8.54706E-17-6.17987E-13
 -1        14-2.39757E-13-3.40264E-13 1.45468E-12-3.34068E-14 1.21156E-12-1.59571E-13
 -1        15 3.74033E-14 8.21586E-13-2.13509E-12 2.93335E-13-8.88898E-13 1.14358E-13
 -1        16-1.81328E-13 1.08668E-12-2.18815E-12 1.67375E-18-8.00416E-13-9.80027E-18
 -1        17 3.79510E-14 8.21965E-13-2.13460E-12-2.93298E-13-8.88999E-13-1.14314E-13
 -1        18-2.39341E-13-3.40673E-13 1.45497E-12 3.35980E-14 1.21157E-12 1.59503E-13
 -1        19-7.35227E-13-1.23754E-12 4.99164E-12 6.63109E-17-4.33212E-17 6.17821E-13
 -1        20-2.39751E-13-3.40632E-13 1.45471E-12-3.34961E-14-1.21165E-12 1.59529E-13
 -1        21-1.28097E-13 8.71607E-13-2.07211E-12 4.01682E-13-8.69725E-13-1.27447E-12
 -1        22 1.48092E-13 2.14780E-12-7.11262E-12-1.96615E-16-4.32511E-12-2.29363E-16
 -1        23-1.28822E-13 8.70760E-13-2.07169E-12-4.01774E-13-8.69631E-13 1.27433E-12
 -1        24 8.70930E-13-1.29072E-13-2.07242E-12-4.01791E-13-1.27423E-12 8.69854E-13
 -1        25 2.14731E-12 1.47340E-13-7.11363E-12-2.28053E-16 1.19054E-16 4.32526E-12
 -1        26 8.70972E-13-1.28769E-13-2.07207E-12 4.01709E-13 1.27430E-12 8.69741E-13
 -1        27-1.28517E-13 8.71527E-13-2.07166E-12 4.01735E-13 8.69682E-13 1.27444E-12
 -1        28 1.47471E-13 2.14626E-12-7.11319E-12-2.27104E-16 4.32528E-12 5.47859E-17
 -1        29-1.29085E-13 8.70565E-13-2.07204E-12-4.01703E-13 8.69614E-13-1.27443E-12
 -1        30 8.71131E-13-1.28837E-13-2.07191E-12-4.01654E-13 1.27428E-12-8.69801E-13
 -1        31 2.14689E-12 1.47039E-13-7.11317E-12-1.64763E-16 1.02411E-16-4.32516E-12
 -1        32 8.71078E-13-1.28539E-13-2.07210E-12 4.01707E-13-1.27435E-12-8.69647E-13
 -1        33-1.37420E-13-1.86907E-13 3.35188E-13-1.73223E-13 1.40565E-14-4.43299E-14
 -1        34-6.01220E-13-5.29037E-13 2.16035E-12 1.05599E-13-4.84717E-13-7.84606E-14
 -1        35-5.44702E-13-4.07714E-13 1.62921E-12 4.89379E-14-4.44372E-14 5.64599E-14
 -1        36-4.55221E-13-6.00150E-13 1.69045E-12-4.67725E-14 5.16307E-15-5.00965E-14
 -1        37-4.98671E-13-5.05262E-13 1.68061E-12-2.27865E-15 3.27068E-14-7.49739E-16
 -1        38-5.04577E-13-4.94696E-13 1.67676E-12-7.18130E-15-3.31729E-14 1.12809E-14
 -1        39-5.08036E-13-5.05148E-13 1.67690E-12 1.07999E-14 4.44756E-15-9.22646E-15
 -1        40-4.96172E-13-5.01094E-13 1.68873E-12-1.31006E-14 8.21025E-15-5.48924E-15
 -1        41-5.04104E-13-5.04578E-13 1.67573E-12 1.78629E-15-1.27501E-14 1.43885E-14
 -1        42-4.79226E-13-4.78335E-13 1.66032E-12-5.87291E-14-1.22796E-13 1.21905E-13
 -1        43-5.41934E-13-5.42005E-13 1.70272E-12 6.49531E-14 1.36669E-13-1.37024E-13
 -1        44-5.52176E-13-5.52446E-13 1.60295E-12-9.95437E-14 2.33656E-13-2.33266E-13
 -1        45-3.97553E-13-3.97366E-13 1.81580E-12-5.99448E-15-4.22077E-13 4.22146E-13
 -1        46-5.16504E-13-5.15764E-13 1.04404E-12 1.63769E-13-5.74864E-13 5.74590E-13
 -1        47-5.47017E-13-5.47004E-13 1.45120E-12-2.54342E-13 1.10459E-12-1.10454E-12
 -1        48-5.45959E-13-5.45876E-13 1.45192E-12 2.54301E-13 1.10460E-12 1.10445E-12
 -1        49-5.15926E-13-5.16014E-13 1.04416E-12-1.64271E-13-5.74596E-13-5.74710E-13
 -1        50-3.96478E-13-3.96776E-13 1.81596E-12 5.75967E-15-4.22015E-13-4.22075E-13
 -1        51-5.50826E-13-5.51177E-13 1.60333E-12 9.97068E-14 2.33453E-13 2.33148E-13
 -1        52-5.41631E-13-5.41731E-13 1.70223E-12-6.48012E-14 1.36563E-13 1.37081E-13
 -1        53-4.79737E-13-4.78800E-13 1.65997E-12 5.89223E-14-1.22827E-13-1.21688E-13
 -1        54-5.04134E-13-5.04301E-13 1.67534E-12-1.79612E-15-1.27280E-14-1.44793E-14
 -1        55-4.95312E-13-4.99487E-13 1.68916E-12 1.30446E-14 8.24992E-15 5.34945E-15
 -1        56-5.07800E-13-5.04512E-13 1.67718E-12-1.06957E-14 4.47113E-15 9.21918E-15
 -1        57-5.05067E-13-4.94803E-13 1.67649E-12 7.27589E-15-3.30096E-14-1.10177E-14
 -1        58-4.99722E-13-5.05606E-13 1.68055E-12 2.33532E-15 3.27261E-14 7.46579E-16
 -1        59-4.56536E-13-6.00459E-13 1.69038E-12 4.67692E-14 4.96468E-15 4.96743E-14
 -1        60-5.44191E-13-4.06981E-13 1.62989E-12-4.88817E-14-4.44579E-14-5.64180E-14
 -1        61-5.99493E-13-5.28185E-13 2.16049E-12-1.05591E-13-4.84567E-13 7.85586E-14
 -1        62-1.37403E-13-1.87509E-13 3.34206E-13 1.73165E-13 1.40736E-14 4.42972E-14
 -1        63-1.37882E-13-1.87018E-13 3.34774E-13 1.73250E-13-1.41521E-14-4.42801E-14
 -1        64-6.01561E-13-5.29156E-13 2.15948E-12-1.05614E-13 4.84527E-13-7.84974E-14
 -1        65-5.44358E-13-4.07400E-13 1.62919E-12-4.89374E-14 4.45377E-14 5.63821E-14
 -1        66-4.54897E-13-5.99600E-13 1.69095E-12 4.68275E-14-4.99737E-15-4.98746E-14
 -1        67-4.98919E-13-5.04944E-13 1.68051E-12 2.37139E-15-3.27713E-14-7.22177E-16
 -1        68-5.05169E-13-4.94797E-13 1.67653E-12 7.32056E-15 3.29171E-14 1.11363E-14
 -1        69-5.08658E-13-5.05573E-13 1.67658E-12-1.07391E-14-4.41101E-15-9.23263E-15
 -1        70-4.96620E-13-5.00841E-13 1.68866E-12 1.29473E-14-8.12530E-15-5.39338E-15
 -1        71-5.04219E-13-5.04634E-13 1.67538E-12-1.84768E-15 1.27383E-14 1.44958E-14
 -1        72-4.79418E-13-4.78542E-13 1.65999E-12 5.88687E-14 1.22693E-13 1.21677E-13
 -1        73-5.42101E-13-5.41646E-13 1.70244E-12-6.48345E-14-1.36613E-13-1.37142E-13
 -1        74-5.51881E-13-5.51606E-13 1.60271E-12 9.96469E-14-2.33199E-13-2.33160E-13
 -1        75-3.97222E-13-3.97194E-13 1.81587E-12 5.78140E-15 4.21988E-13 4.22182E-13
 -1        76-5.16388E-13-5.16479E-13 1.04348E-12-1.64179E-13 5.74636E-13 5.74689E-13
 -1        77-5.46843E-13-5.46096E-13 1.45110E-12 2.54345E-13-1.10455E-12-1.10452E-12
 -1        78-1.37658E-13-1.86771E-13 3.34994E-13-1.73292E-13-1.41130E-14 4.43603E-14
 -1        79-6.00802E-13-5.27989E-13 2.16018E-12 1.05517E-13 4.84700E-13 7.85194E-14
 -1        80-5.44676E-13-4.07703E-13 1.62921E-12 4.88848E-14 4.46398E-14-5.64505E-14
 -1        81-4.56277E-13-6.01121E-13 1.69081E-12-4.69706E-14-5.12433E-15 4.98421E-14
 -1        82-4.98964E-13-5.05125E-13 1.68059E-12-2.39338E-15-3.29156E-14 7.00980E-16
 -1        83-5.04708E-13-4.94489E-13 1.67635E-12-7.09470E-15 3.29503E-14-1.10549E-14
 -1        84-5.08506E-13-5.05255E-13 1.67665E-12 1.08457E-14-4.36633E-15 9.20955E-15
 -1        85-4.96293E-13-5.00620E-13 1.68887E-12-1.31127E-14-8.06008E-15 5.27474E-15
 -1        86-5.04023E-13-5.04119E-13 1.67560E-12 1.77969E-15 1.26623E-14-1.43856E-14
 -1        87-4.78555E-13-4.77183E-13 1.66066E-12-5.88443E-14 1.22686E-13-1.21825E-13
 -1        88-5.41243E-13-5.41409E-13 1.70246E-12 6.48532E-14-1.36616E-13 1.37092E-13
 -1        89-5.51616E-13-5.52337E-13 1.60237E-12-9.94802E-14-2.33414E-13 2.33178E-13
 -1        90-3.96887E-13-3.97281E-13 1.81594E-12-5.83216E-15 4.22103E-13-4.22194E-13
 -1        91-5.15995E-13-5.16611E-13 1.04397E-12 1.63786E-13 5.74845E-13-5.74455E-13
 -1        92-5.46412E-13-5.46497E-13 1.45166E-12-2.54322E-13-1.10459E-12 1.10456E-12
 -1        93-4.58310E-13 2.10996E-13 1.39379E-12 3.58772E-17-1.19936E-12-2.29827E-17