
 displacements (vx,vy,vz) for set N1 and time  0.1000000E+01

       100  3.931306E-14  8.778365E-02  3.538205E-16
