    1C
    1UModel: beam     Date: 10-Mar-1998                                 
    1UUSER                                                              
    1UDATE              24.november.2019                                
    1UTIME              19:37:50                                        
    1UHOST                                                              
    1UPGM               CalculiX                                        
    1UVERSION           Version 2.16                             
    1UCOMPILETIME       So 24. Nov 18:30:58 CET 2019                    
    1UDIR                                                               
    1UDBN                                                               
    1UMAT    1EL                                                        
    2C                           258                                     1
 -1         1 0.00000E+00 0.00000E+00 0.00000E+00
 -1         2 1.00000E+00 0.00000E+00 0.00000E+00
 -1         3 1.00000E+00 1.00000E+00 0.00000E+00
 -1         4 0.00000E+00 1.00000E+00 0.00000E+00
 -1         5 0.00000E+00 0.00000E+00 8.00000E+00
 -1         6 1.00000E+00 0.00000E+00 8.00000E+00
 -1         7 1.00000E+00 1.00000E+00 8.00000E+00
 -1         8 0.00000E+00 1.00000E+00 8.00000E+00
 -1         9 2.50000E-01 0.00000E+00 0.00000E+00
 -1        10 5.00000E-01 0.00000E+00 0.00000E+00
 -1        11 7.50000E-01 0.00000E+00 0.00000E+00
 -1        12 1.00000E+00 2.50000E-01 0.00000E+00
 -1        13 1.00000E+00 5.00000E-01 0.00000E+00
 -1        14 1.00000E+00 7.50000E-01 0.00000E+00
 -1        15 7.50000E-01 1.00000E+00 0.00000E+00
 -1        16 5.00000E-01 1.00000E+00 0.00000E+00
 -1        17 2.50000E-01 1.00000E+00 0.00000E+00
 -1        18 0.00000E+00 7.50000E-01 0.00000E+00
 -1        19 0.00000E+00 5.00000E-01 0.00000E+00
 -1        20 0.00000E+00 2.50000E-01 0.00000E+00
 -1        21 2.50000E-01 0.00000E+00 8.00000E+00
 -1        22 5.00000E-01 0.00000E+00 8.00000E+00
 -1        23 7.50000E-01 0.00000E+00 8.00000E+00
 -1        24 1.00000E+00 2.50000E-01 8.00000E+00
 -1        25 1.00000E+00 5.00000E-01 8.00000E+00
 -1        26 1.00000E+00 7.50000E-01 8.00000E+00
 -1        27 7.50000E-01 1.00000E+00 8.00000E+00
 -1        28 5.00000E-01 1.00000E+00 8.00000E+00
 -1        29 2.50000E-01 1.00000E+00 8.00000E+00
 -1        30 0.00000E+00 7.50000E-01 8.00000E+00
 -1        31 0.00000E+00 5.00000E-01 8.00000E+00
 -1        32 0.00000E+00 2.50000E-01 8.00000E+00
 -1        33 1.00000E+00 0.00000E+00 5.00000E-01
 -1        34 1.00000E+00 0.00000E+00 1.00000E+00
 -1        36 1.00000E+00 0.00000E+00 2.00000E+00
 -1        37 1.00000E+00 0.00000E+00 2.50000E+00
 -1        38 1.00000E+00 0.00000E+00 3.00000E+00
 -1        39 1.00000E+00 0.00000E+00 3.50000E+00
 -1        40 1.00000E+00 0.00000E+00 4.00000E+00
 -1        41 1.00000E+00 0.00000E+00 4.50000E+00
 -1        42 1.00000E+00 0.00000E+00 5.00000E+00
 -1        43 1.00000E+00 0.00000E+00 5.50000E+00
 -1        44 1.00000E+00 0.00000E+00 6.00000E+00
 -1        45 1.00000E+00 0.00000E+00 6.50000E+00
 -1        46 1.00000E+00 0.00000E+00 7.00000E+00
 -1        47 1.00000E+00 0.00000E+00 7.50000E+00
 -1        48 0.00000E+00 0.00000E+00 7.50000E+00
 -1        49 0.00000E+00 0.00000E+00 7.00000E+00
 -1        50 0.00000E+00 0.00000E+00 6.50000E+00
 -1        51 0.00000E+00 0.00000E+00 6.00000E+00
 -1        52 0.00000E+00 0.00000E+00 5.50000E+00
 -1        53 0.00000E+00 0.00000E+00 5.00000E+00
 -1        54 0.00000E+00 0.00000E+00 4.50000E+00
 -1        55 0.00000E+00 0.00000E+00 4.00000E+00
 -1        56 0.00000E+00 0.00000E+00 3.50000E+00
 -1        57 0.00000E+00 0.00000E+00 3.00000E+00
 -1        58 0.00000E+00 0.00000E+00 2.50000E+00
 -1        59 0.00000E+00 0.00000E+00 2.00000E+00
 -1        61 0.00000E+00 0.00000E+00 1.00000E+00
 -1        62 0.00000E+00 0.00000E+00 5.00000E-01
 -1        63 1.00000E+00 1.00000E+00 5.00000E-01
 -1        64 1.00000E+00 1.00000E+00 1.00000E+00
 -1        65 1.00000E+00 1.00000E+00 1.50000E+00
 -1        66 1.00000E+00 1.00000E+00 2.00000E+00
 -1        67 1.00000E+00 1.00000E+00 2.50000E+00
 -1        68 1.00000E+00 1.00000E+00 3.00000E+00
 -1        69 1.00000E+00 1.00000E+00 3.50000E+00
 -1        70 1.00000E+00 1.00000E+00 4.00000E+00
 -1        71 1.00000E+00 1.00000E+00 4.50000E+00
 -1        72 1.00000E+00 1.00000E+00 5.00000E+00
 -1        73 1.00000E+00 1.00000E+00 5.50000E+00
 -1        74 1.00000E+00 1.00000E+00 6.00000E+00
 -1        75 1.00000E+00 1.00000E+00 6.50000E+00
 -1        76 1.00000E+00 1.00000E+00 7.00000E+00
 -1        77 1.00000E+00 1.00000E+00 7.50000E+00
 -1        78 0.00000E+00 1.00000E+00 5.00000E-01
 -1        79 0.00000E+00 1.00000E+00 1.00000E+00
 -1        80 0.00000E+00 1.00000E+00 1.50000E+00
 -1        81 0.00000E+00 1.00000E+00 2.00000E+00
 -1        82 0.00000E+00 1.00000E+00 2.50000E+00
 -1        83 0.00000E+00 1.00000E+00 3.00000E+00
 -1        84 0.00000E+00 1.00000E+00 3.50000E+00
 -1        85 0.00000E+00 1.00000E+00 4.00000E+00
 -1        86 0.00000E+00 1.00000E+00 4.50000E+00
 -1        87 0.00000E+00 1.00000E+00 5.00000E+00
 -1        88 0.00000E+00 1.00000E+00 5.50000E+00
 -1        89 0.00000E+00 1.00000E+00 6.00000E+00
 -1        90 0.00000E+00 1.00000E+00 6.50000E+00
 -1        91 0.00000E+00 1.00000E+00 7.00000E+00
 -1        92 0.00000E+00 1.00000E+00 7.50000E+00
 -1        93 5.00000E-01 2.50000E-01 0.00000E+00
 -1        94 2.50000E-01 5.00000E-01 0.00000E+00
 -1        95 5.00000E-01 5.00000E-01 0.00000E+00
 -1        96 7.50000E-01 5.00000E-01 0.00000E+00
 -1        97 5.00000E-01 7.50000E-01 0.00000E+00
 -1        98 5.00000E-01 2.50000E-01 8.00000E+00
 -1        99 2.50000E-01 5.00000E-01 8.00000E+00
 -1       100 5.00000E-01 5.00000E-01 8.00000E+00
 -1       101 7.50000E-01 5.00000E-01 8.00000E+00
 -1       102 5.00000E-01 7.50000E-01 8.00000E+00
 -1       103 5.00000E-01 0.00000E+00 5.00000E-01
 -1       104 2.50000E-01 0.00000E+00 1.00000E+00
 -1       105 5.00000E-01 0.00000E+00 1.00000E+00
 -1       106 7.50000E-01 0.00000E+00 1.00000E+00
 -1       108 2.50000E-01 0.00000E+00 2.00000E+00
 -1       109 5.00000E-01 0.00000E+00 2.00000E+00
 -1       110 7.50000E-01 0.00000E+00 2.00000E+00
 -1       111 5.00000E-01 0.00000E+00 2.50000E+00
 -1       112 2.50000E-01 0.00000E+00 3.00000E+00
 -1       113 5.00000E-01 0.00000E+00 3.00000E+00
 -1       114 7.50000E-01 0.00000E+00 3.00000E+00
 -1       115 5.00000E-01 0.00000E+00 3.50000E+00
 -1       116 2.50000E-01 0.00000E+00 4.00000E+00
 -1       117 5.00000E-01 0.00000E+00 4.00000E+00
 -1       118 7.50000E-01 0.00000E+00 4.00000E+00
 -1       119 5.00000E-01 0.00000E+00 4.50000E+00
 -1       120 2.50000E-01 0.00000E+00 5.00000E+00
 -1       121 5.00000E-01 0.00000E+00 5.00000E+00
 -1       122 7.50000E-01 0.00000E+00 5.00000E+00
 -1       123 5.00000E-01 0.00000E+00 5.50000E+00
 -1       124 2.50000E-01 0.00000E+00 6.00000E+00
 -1       125 5.00000E-01 0.00000E+00 6.00000E+00
 -1       126 7.50000E-01 0.00000E+00 6.00000E+00
 -1       127 5.00000E-01 0.00000E+00 6.50000E+00
 -1       128 2.50000E-01 0.00000E+00 7.00000E+00
 -1       129 5.00000E-01 0.00000E+00 7.00000E+00
 -1       130 7.50000E-01 0.00000E+00 7.00000E+00
 -1       131 5.00000E-01 0.00000E+00 7.50000E+00
 -1       132 1.00000E+00 5.00000E-01 5.00000E-01
 -1       133 1.00000E+00 2.50000E-01 1.00000E+00
 -1       134 1.00000E+00 5.00000E-01 1.00000E+00
 -1       135 1.00000E+00 7.50000E-01 1.00000E+00
 -1       136 1.00000E+00 5.00000E-01 1.50000E+00
 -1       137 1.00000E+00 2.50000E-01 2.00000E+00
 -1       138 1.00000E+00 5.00000E-01 2.00000E+00
 -1       139 1.00000E+00 7.50000E-01 2.00000E+00
 -1       140 1.00000E+00 5.00000E-01 2.50000E+00
 -1       141 1.00000E+00 2.50000E-01 3.00000E+00
 -1       142 1.00000E+00 5.00000E-01 3.00000E+00
 -1       143 1.00000E+00 7.50000E-01 3.00000E+00
 -1       144 1.00000E+00 5.00000E-01 3.50000E+00
 -1       145 1.00000E+00 2.50000E-01 4.00000E+00
 -1       146 1.00000E+00 5.00000E-01 4.00000E+00
 -1       147 1.00000E+00 7.50000E-01 4.00000E+00
 -1       148 1.00000E+00 5.00000E-01 4.50000E+00
 -1       149 1.00000E+00 2.50000E-01 5.00000E+00
 -1       150 1.00000E+00 5.00000E-01 5.00000E+00
 -1       151 1.00000E+00 7.50000E-01 5.00000E+00
 -1       152 1.00000E+00 5.00000E-01 5.50000E+00
 -1       153 1.00000E+00 2.50000E-01 6.00000E+00
 -1       154 1.00000E+00 5.00000E-01 6.00000E+00
 -1       155 1.00000E+00 7.50000E-01 6.00000E+00
 -1       156 1.00000E+00 5.00000E-01 6.50000E+00
 -1       157 1.00000E+00 2.50000E-01 7.00000E+00
 -1       158 1.00000E+00 5.00000E-01 7.00000E+00
 -1       159 1.00000E+00 7.50000E-01 7.00000E+00
 -1       160 1.00000E+00 5.00000E-01 7.50000E+00
 -1       161 5.00000E-01 1.00000E+00 5.00000E-01
 -1       162 7.50000E-01 1.00000E+00 1.00000E+00
 -1       163 5.00000E-01 1.00000E+00 1.00000E+00
 -1       164 2.50000E-01 1.00000E+00 1.00000E+00
 -1       165 5.00000E-01 1.00000E+00 1.50000E+00
 -1       166 7.50000E-01 1.00000E+00 2.00000E+00
 -1       167 5.00000E-01 1.00000E+00 2.00000E+00
 -1       168 2.50000E-01 1.00000E+00 2.00000E+00
 -1       169 5.00000E-01 1.00000E+00 2.50000E+00
 -1       170 7.50000E-01 1.00000E+00 3.00000E+00
 -1       171 5.00000E-01 1.00000E+00 3.00000E+00
 -1       172 2.50000E-01 1.00000E+00 3.00000E+00
 -1       173 5.00000E-01 1.00000E+00 3.50000E+00
 -1       174 7.50000E-01 1.00000E+00 4.00000E+00
 -1       175 5.00000E-01 1.00000E+00 4.00000E+00
 -1       176 2.50000E-01 1.00000E+00 4.00000E+00
 -1       177 5.00000E-01 1.00000E+00 4.50000E+00
 -1       178 7.50000E-01 1.00000E+00 5.00000E+00
 -1       179 5.00000E-01 1.00000E+00 5.00000E+00
 -1       180 2.50000E-01 1.00000E+00 5.00000E+00
 -1       181 5.00000E-01 1.00000E+00 5.50000E+00
 -1       182 7.50000E-01 1.00000E+00 6.00000E+00
 -1       183 5.00000E-01 1.00000E+00 6.00000E+00
 -1       184 2.50000E-01 1.00000E+00 6.00000E+00
 -1       185 5.00000E-01 1.00000E+00 6.50000E+00
 -1       186 7.50000E-01 1.00000E+00 7.00000E+00
 -1       187 5.00000E-01 1.00000E+00 7.00000E+00
 -1       188 2.50000E-01 1.00000E+00 7.00000E+00
 -1       189 5.00000E-01 1.00000E+00 7.50000E+00
 -1       190 0.00000E+00 5.00000E-01 5.00000E-01
 -1       191 0.00000E+00 7.50000E-01 1.00000E+00
 -1       192 0.00000E+00 5.00000E-01 1.00000E+00
 -1       193 0.00000E+00 2.50000E-01 1.00000E+00
 -1       194 0.00000E+00 5.00000E-01 1.50000E+00
 -1       195 0.00000E+00 7.50000E-01 2.00000E+00
 -1       196 0.00000E+00 5.00000E-01 2.00000E+00
 -1       197 0.00000E+00 2.50000E-01 2.00000E+00
 -1       198 0.00000E+00 5.00000E-01 2.50000E+00
 -1       199 0.00000E+00 7.50000E-01 3.00000E+00
 -1       200 0.00000E+00 5.00000E-01 3.00000E+00
 -1       201 0.00000E+00 2.50000E-01 3.00000E+00
 -1       202 0.00000E+00 5.00000E-01 3.50000E+00
 -1       203 0.00000E+00 7.50000E-01 4.00000E+00
 -1       204 0.00000E+00 5.00000E-01 4.00000E+00
 -1       205 0.00000E+00 2.50000E-01 4.00000E+00
 -1       206 0.00000E+00 5.00000E-01 4.50000E+00
 -1       207 0.00000E+00 7.50000E-01 5.00000E+00
 -1       208 0.00000E+00 5.00000E-01 5.00000E+00
 -1       209 0.00000E+00 2.50000E-01 5.00000E+00
 -1       210 0.00000E+00 5.00000E-01 5.50000E+00
 -1       211 0.00000E+00 7.50000E-01 6.00000E+00
 -1       212 0.00000E+00 5.00000E-01 6.00000E+00
 -1       213 0.00000E+00 2.50000E-01 6.00000E+00
 -1       214 0.00000E+00 5.00000E-01 6.50000E+00
 -1       215 0.00000E+00 7.50000E-01 7.00000E+00
 -1       216 0.00000E+00 5.00000E-01 7.00000E+00
 -1       217 0.00000E+00 2.50000E-01 7.00000E+00
 -1       218 0.00000E+00 5.00000E-01 7.50000E+00
 -1       219 5.00000E-01 5.00000E-01 5.00000E-01
 -1       220 5.00000E-01 2.50000E-01 1.00000E+00
 -1       221 2.50000E-01 5.00000E-01 1.00000E+00
 -1       222 5.00000E-01 5.00000E-01 1.00000E+00
 -1       223 7.50000E-01 5.00000E-01 1.00000E+00
 -1       224 5.00000E-01 7.50000E-01 1.00000E+00
 -1       225 5.00000E-01 5.00000E-01 1.50000E+00
 -1       226 5.00000E-01 2.50000E-01 2.00000E+00
 -1       227 2.50000E-01 5.00000E-01 2.00000E+00
 -1       228 5.00000E-01 5.00000E-01 2.00000E+00
 -1       229 7.50000E-01 5.00000E-01 2.00000E+00
 -1       230 5.00000E-01 7.50000E-01 2.00000E+00
 -1       231 5.00000E-01 5.00000E-01 2.50000E+00
 -1       232 5.00000E-01 2.50000E-01 3.00000E+00
 -1       233 2.50000E-01 5.00000E-01 3.00000E+00
 -1       234 5.00000E-01 5.00000E-01 3.00000E+00
 -1       235 7.50000E-01 5.00000E-01 3.00000E+00
 -1       236 5.00000E-01 7.50000E-01 3.00000E+00
 -1       237 5.00000E-01 5.00000E-01 3.50000E+00
 -1       238 5.00000E-01 2.50000E-01 4.00000E+00
 -1       239 2.50000E-01 5.00000E-01 4.00000E+00
 -1       240 5.00000E-01 5.00000E-01 4.00000E+00
 -1       241 7.50000E-01 5.00000E-01 4.00000E+00
 -1       242 5.00000E-01 7.50000E-01 4.00000E+00
 -1       243 5.00000E-01 5.00000E-01 4.50000E+00
 -1       244 5.00000E-01 2.50000E-01 5.00000E+00
 -1       245 2.50000E-01 5.00000E-01 5.00000E+00
 -1       246 5.00000E-01 5.00000E-01 5.00000E+00
 -1       247 7.50000E-01 5.00000E-01 5.00000E+00
 -1       248 5.00000E-01 7.50000E-01 5.00000E+00
 -1       249 5.00000E-01 5.00000E-01 5.50000E+00
 -1       250 5.00000E-01 2.50000E-01 6.00000E+00
 -1       251 2.50000E-01 5.00000E-01 6.00000E+00
 -1       252 5.00000E-01 5.00000E-01 6.00000E+00
 -1       253 7.50000E-01 5.00000E-01 6.00000E+00
 -1       254 5.00000E-01 7.50000E-01 6.00000E+00
 -1       255 5.00000E-01 5.00000E-01 6.50000E+00
 -1       256 5.00000E-01 2.50000E-01 7.00000E+00
 -1       257 2.50000E-01 5.00000E-01 7.00000E+00
 -1       258 5.00000E-01 5.00000E-01 7.00000E+00
 -1       259 7.50000E-01 5.00000E-01 7.00000E+00
 -1       260 5.00000E-01 7.50000E-01 7.00000E+00
 -1       261 5.00000E-01 5.00000E-01 7.50000E+00
 -3
    3C                            30                                     1
 -1         1    4    0    1
 -2         1        10        95        19        61       105       222       192         9        93
 -2        94        20        62       103       219       190       104       220       221       193
 -1         2    4    0    1
 -2        10         2        13        95       105        34       134       222        11        12
 -2        96        93       103        33       132       219       106       133       223       220
 -1         3    4    0    1
 -2        19        95        16         4       192       222       163        79        94        97
 -2        17        18       190       219       161        78       221       224       164       191
 -1         4    4    0    1
 -2        95        13         3        16       222       134        64       163        96        14
 -2        15        97       219       132        63       161       223       135       162       224
 -1         7    4    0    1
 -2       192       222       163        79       196       228       167        81       221       224
 -2       164       191       194       225       165        80       227       230       168       195
 -1         8    4    0    1
 -2       222       134        64       163       228       138        66       167       223       135
 -2       162       224       225       136        65       165       229       139       166       230
 -1         9    4    0    1
 -2        59       109       228       196        57       113       234       200       108       226
 -2       227       197        58       111       231       198       112       232       233       201
 -1        10    4    0    1
 -2       109        36       138       228       113        38       142       234       110       137
 -2       229       226       111        37       140       231       114       141       235       232
 -1        11    4    0    1
 -2       196       228       167        81       200       234       171        83       227       230
 -2       168       195       198       231       169        82       233       236       172       199
 -1        12    4    0    1
 -2       228       138        66       167       234       142        68       171       229       139
 -2       166       230       231       140        67       169       235       143       170       236
 -1        13    4    0    1
 -2        57       113       234       200        55       117       240       204       112       232
 -2       233       201        56       115       237       202       116       238       239       205
 -1        14    4    0    1
 -2       113        38       142       234       117        40       146       240       114       141
 -2       235       232       115        39       144       237       118       145       241       238
 -1        15    4    0    1
 -2       200       234       171        83       204       240       175        85       233       236
 -2       172       199       202       237       173        84       239       242       176       203
 -1        16    4    0    1
 -2       234       142        68       171       240       146        70       175       235       143
 -2       170       236       237       144        69       173       241       147       174       242
 -1        17    4    0    1
 -2        55       117       240       204        53       121       246       208       116       238
 -2       239       205        54       119       243       206       120       244       245       209
 -1        18    4    0    1
 -2       117        40       146       240       121        42       150       246       118       145
 -2       241       238       119        41       148       243       122       149       247       244
 -1        19    4    0    1
 -2       204       240       175        85       208       246       179        87       239       242
 -2       176       203       206       243       177        86       245       248       180       207
 -1        20    4    0    1
 -2       240       146        70       175       246       150        72       179       241       147
 -2       174       242       243       148        71       177       247       151       178       248
 -1        21    4    0    1
 -2        53       121       246       208        51       125       252       212       120       244
 -2       245       209        52       123       249       210       124       250       251       213
 -1        22    4    0    1
 -2       121        42       150       246       125        44       154       252       122       149
 -2       247       244       123        43       152       249       126       153       253       250
 -1        23    4    0    1
 -2       208       246       179        87       212       252       183        89       245       248
 -2       180       207       210       249       181        88       251       254       184       211
 -1        24    4    0    1
 -2       246       150        72       179       252       154        74       183       247       151
 -2       178       248       249       152        73       181       253       155       182       254
 -1        25    4    0    1
 -2        51       125       252       212        49       129       258       216       124       250
 -2       251       213        50       127       255       214       128       256       257       217
 -1        26    4    0    1
 -2       125        44       154       252       129        46       158       258       126       153
 -2       253       250       127        45       156       255       130       157       259       256
 -1        27    4    0    1
 -2       212       252       183        89       216       258       187        91       251       254
 -2       184       211       214       255       185        90       257       260       188       215
 -1        28    4    0    1
 -2       252       154        74       183       258       158        76       187       253       155
 -2       182       254       255       156        75       185       259       159       186       260
 -1        29    4    0    1
 -2        49       129       258       216         5        22       100        31       128       256
 -2       257       217        48       131       261       218        21        98        99        32
 -1        30    4    0    1
 -2       129        46       158       258        22         6        25       100       130       157
 -2       259       256       131        47       160       261        23        24       101        98
 -1        31    4    0    1
 -2       216       258       187        91        31       100        28         8       257       260
 -2       188       215       218       261       189        92        99       102        29        30
 -1        32    4    0    1
 -2       258       158        76       187       100        25         7        28       259       159
 -2       186       260       261       160        77       189       101        26        27       102
 -3
    1PSTEP                         1           1           1          
  100CL  101 1.000000000         258                     0    1           1
 -4  STRESS      6    1
 -5  SXX         1    4    1    1
 -5  SYY         1    4    2    2
 -5  SZZ         1    4    3    3
 -5  SXY         1    4    1    2
 -5  SYZ         1    4    2    3
 -5  SZX         1    4    3    1
 -1         1 1.48614E+02 3.83762E+01 6.52692E+02-3.92720E+01 7.52599E+01 6.25815E+01
 -1         2 1.48614E+02 3.83762E+01 6.52692E+02 3.92720E+01 7.52599E+01-6.25815E+01
 -1         3-1.23312E+02-2.15894E+02-3.19129E+02 2.52899E-01-1.26263E+01 8.48210E+01
 -1         4-1.23312E+02-2.15894E+02-3.19129E+02-2.52899E-01-1.26263E+01-8.48210E+01
 -1         5 6.14807E+00-2.99543E+01 3.98240E+00-1.46161E+01 1.08146E+01-3.67499E+00
 -1         6 6.14807E+00-2.99543E+01 3.98240E+00 1.46161E+01 1.08146E+01 3.67499E+00
 -1         7-6.35410E+00 3.15894E+01-2.67647E+00 1.40375E+01 9.22233E+00-3.52069E+00
 -1         8-6.35410E+00 3.15894E+01-2.67647E+00-1.40375E+01 9.22233E+00 3.52069E+00
 -1         9 1.30717E+02 9.88139E+00 6.21569E+02-1.58681E+01 8.68886E+01 2.95918E+01
 -1        10 1.12820E+02-1.86134E+01 5.90446E+02 4.52971E-14 9.85173E+01-1.66533E-14
 -1        11 1.30717E+02 9.88139E+00 6.21569E+02 1.58681E+01 8.68886E+01-2.95918E+01
 -1        12 3.11756E+01-1.26429E+02 2.20720E+02 4.47261E+01-2.37465E+01-1.85810E+01
 -1        13-4.32765E+01-2.02071E+02-1.56699E+02 2.15328E+01-3.56732E+01 2.61588E+01
 -1        14-6.18012E+01-1.64401E+02-2.10637E+02-3.43088E+00 1.93902E+01 5.58595E+01
 -1        15-1.19125E+02-2.19346E+02-3.01969E+02 5.43830E+00-5.11337E-01 3.83867E+01
 -1        16-1.14937E+02-2.22797E+02-2.84810E+02 2.27374E-13 1.16036E+01 4.70735E-14
 -1        17-1.19125E+02-2.19346E+02-3.01969E+02-5.43830E+00-5.11337E-01-3.83867E+01
 -1        18-6.18012E+01-1.64401E+02-2.10637E+02 3.43088E+00 1.93902E+01-5.58595E+01
 -1        19-4.32765E+01-2.02071E+02-1.56699E+02-2.15328E+01-3.56732E+01-2.61588E+01
 -1        20 3.11756E+01-1.26429E+02 2.20720E+02-4.47261E+01-2.37465E+01 1.85810E+01
 -1        21 7.42203E+00-1.44864E+01 2.09360E+00 9.47967E-01 5.06503E+00-3.83848E+00
 -1        22 8.69599E+00 9.81463E-01 2.04809E-01 2.20712E-11-6.84585E-01-2.13549E-11
 -1        23 7.42203E+00-1.44864E+01 2.09360E+00-9.47967E-01 5.06503E+00 3.83848E+00
 -1        24-6.34388E-01-1.42893E+01-1.35454E+00 1.01500E+01 1.49524E+01 6.42510E-02
 -1        25-1.64491E-01 1.53226E+00-1.66533E+00 5.71920E+00 1.86465E+01-3.18477E-01
 -1        26 3.66882E-01 1.66391E+01 3.42168E-01 9.89605E+00 1.37126E+01-3.05580E-01
 -1        27-7.71613E+00 1.51710E+01-1.25568E+00-1.46655E+00 4.32625E+00-3.53914E+00
 -1        28-9.07816E+00-1.24753E+00 1.65108E-01-2.96492E-11-5.69823E-01-6.51279E-12
 -1        29-7.71613E+00 1.51710E+01-1.25568E+00 1.46655E+00 4.32625E+00 3.53914E+00
 -1        30 3.66882E-01 1.66391E+01 3.42168E-01-9.89605E+00 1.37126E+01 3.05580E-01
 -1        31-1.64491E-01 1.53226E+00-1.66533E+00-5.71920E+00 1.86465E+01 3.18477E-01
 -1        32-6.34388E-01-1.42893E+01-1.35454E+00-1.01500E+01 1.49524E+01-6.42510E-02
 -1        33 3.72501E+01 2.07011E+00 2.01883E+02 1.00089E+01 3.06754E+01-8.68657E+00
 -1        34-7.41137E+01-3.42360E+01-2.48925E+02-1.92541E+01-1.39090E+01 4.52084E+01
 -1        36-1.52193E+01-5.88121E-01-1.91520E+02-2.64505E+00 1.65979E+01-5.25240E+00
 -1        37 4.53661E+00-9.97007E+00 1.29998E+02 3.46313E+00-2.12410E+01-6.86223E+00
 -1        38 5.56950E+00 1.02780E+01 3.59931E+02-4.82924E-01-8.93762E+00-4.58701E+00
 -1        39-9.71100E+00 5.97274E+00 2.33870E+02-4.04014E+00 1.66585E+01 2.70573E+00
 -1        40 4.22392E+00-7.93324E+00 2.11278E+02 2.61799E+00 4.28068E+00 1.03131E+00
 -1        41 4.44515E+00 3.68912E+00 1.91401E+02 1.10718E+00 1.23701E+01-5.84212E-01
 -1        42-3.30998E+00-1.26484E+00 1.61061E+02-1.02051E+00 8.99311E+00 1.65726E+00
 -1        43-7.63041E-01-4.85338E-01 1.34524E+02 4.31563E-02 9.11099E+00 7.50743E-01
 -1        44 8.80955E-01-4.41292E-01 1.07446E+02 8.89177E-01 5.68133E+00 1.10126E+00
 -1        45-3.46002E-01 2.03905E+00 8.12193E+01-7.96299E-01 7.91854E+00 2.80765E-02
 -1        46-1.73937E+00 7.72450E+00 5.36685E+01-3.68438E+00 4.76571E+00 5.42961E-01
 -1        47 2.92769E+00-8.15357E+00 2.86041E+01 4.52786E+00 3.67235E+00 2.91897E+00
 -1        48 2.92769E+00-8.15357E+00 2.86041E+01-4.52786E+00 3.67235E+00-2.91897E+00
 -1        49-1.73937E+00 7.72450E+00 5.36685E+01 3.68438E+00 4.76571E+00-5.42961E-01
 -1        50-3.46002E-01 2.03905E+00 8.12193E+01 7.96299E-01 7.91854E+00-2.80765E-02
 -1        51 8.80955E-01-4.41292E-01 1.07446E+02-8.89177E-01 5.68133E+00-1.10126E+00
 -1        52-7.63041E-01-4.85338E-01 1.34524E+02-4.31563E-02 9.11099E+00-7.50743E-01
 -1        53-3.30998E+00-1.26484E+00 1.61061E+02 1.02051E+00 8.99311E+00-1.65726E+00
 -1        54 4.44515E+00 3.68912E+00 1.91401E+02-1.10718E+00 1.23701E+01 5.84212E-01
 -1        55 4.22392E+00-7.93324E+00 2.11278E+02-2.61799E+00 4.28068E+00-1.03131E+00
 -1        56-9.71100E+00 5.97274E+00 2.33870E+02 4.04014E+00 1.66585E+01-2.70573E+00
 -1        57 5.56950E+00 1.02780E+01 3.59931E+02 4.82924E-01-8.93762E+00 4.58701E+00
 -1        58 4.53661E+00-9.97007E+00 1.29998E+02-3.46313E+00-2.12410E+01 6.86223E+00
 -1        59-1.52193E+01-5.88121E-01-1.91520E+02 2.64505E+00 1.65979E+01 5.25240E+00
 -1        61-7.41137E+01-3.42360E+01-2.48925E+02 1.92541E+01-1.39090E+01-4.52084E+01
 -1        62 3.72501E+01 2.07011E+00 2.01883E+02-1.00089E+01 3.06754E+01 8.68657E+00
 -1        63 4.70492E+00-4.30908E+00-6.09107E+02-1.74913E+01-1.08943E+02 3.20884E+01
 -1        64 2.35718E+01 5.22396E+01-1.20292E+03 2.72917E+00-2.20034E+02 3.10664E+01
 -1        65-5.56665E+01-7.39508E+01-1.40086E+03 3.93631E+01-1.21219E+01-1.95601E+00
 -1        66 1.32530E+01 4.08772E+01-1.06292E+03-3.18272E+00 1.75090E+02-5.36870E+01
 -1        67 2.11763E+01 2.98367E+01-4.81639E+02-1.85837E+01 7.66697E+01-1.12946E+01
 -1        68-1.35944E+01-3.45499E+01-1.98379E+02 1.24307E+01-2.40003E+01-3.54003E+00
 -1        69-9.50380E+00-3.13701E+00-2.45262E+02 6.91696E+00-2.40821E+01-4.76005E-01
 -1        70 5.53586E+00 4.12273E+00-2.17559E+02-4.87504E+00 7.06528E+00 4.12921E-01
 -1        71 4.17957E+00 3.36454E+00-1.86943E+02-2.18387E+00-2.41892E+00-1.33965E+00
 -1        72-3.29082E+00-4.87767E+00-1.62622E+02 1.27130E+00-6.80064E+00-2.47603E-01
 -1        73-8.50182E-01 4.89268E-02-1.34163E+02 8.47882E-01-4.31252E+00-6.56878E-01
 -1        74-1.40112E-02 1.44442E+00-1.07108E+02 1.82804E-01-3.22110E+00-7.82139E-01
 -1        75 9.44256E-01-9.10950E-01-8.08238E+01-1.06641E+00 5.45527E-01-3.38960E-01
 -1        76 1.40404E+00-7.55401E+00-5.36157E+01-3.54952E+00-1.65686E-01-4.53017E-01
 -1        77-2.95217E+00 8.60802E+00-2.72343E+01 4.34924E+00 8.94408E-01-2.60670E+00
 -1        78 4.70492E+00-4.30908E+00-6.09107E+02 1.74913E+01-1.08943E+02-3.20884E+01
 -1        79 2.35718E+01 5.22396E+01-1.20292E+03-2.72917E+00-2.20034E+02-3.10664E+01
 -1        80-5.56665E+01-7.39508E+01-1.40086E+03-3.93631E+01-1.21219E+01 1.95601E+00
 -1        81 1.32530E+01 4.08772E+01-1.06292E+03 3.18272E+00 1.75090E+02 5.36870E+01
 -1        82 2.11763E+01 2.98367E+01-4.81639E+02 1.85837E+01 7.66697E+01 1.12946E+01
 -1        83-1.35944E+01-3.45499E+01-1.98379E+02-1.24307E+01-2.40003E+01 3.54003E+00
 -1        84-9.50380E+00-3.13701E+00-2.45262E+02-6.91696E+00-2.40821E+01 4.76005E-01
 -1        85 5.53586E+00 4.12273E+00-2.17559E+02 4.87504E+00 7.06528E+00-4.12921E-01
 -1        86 4.17957E+00 3.36454E+00-1.86943E+02 2.18387E+00-2.41892E+00 1.33965E+00
 -1        87-3.29082E+00-4.87767E+00-1.62622E+02-1.27130E+00-6.80064E+00 2.47603E-01
 -1        88-8.50182E-01 4.89268E-02-1.34163E+02-8.47882E-01-4.31252E+00 6.56878E-01
 -1        89-1.40112E-02 1.44442E+00-1.07108E+02-1.82804E-01-3.22110E+00 7.82139E-01
 -1        90 9.44256E-01-9.10950E-01-8.08238E+01 1.06641E+00 5.45527E-01 3.38960E-01
 -1        91 1.40404E+00-7.55401E+00-5.36157E+01 3.54952E+00-1.65686E-01 4.53017E-01
 -1        92-2.95217E+00 8.60802E+00-2.72343E+01-4.34924E+00 8.94408E-01 2.60670E+00
 -1        93 5.89963E+00-1.73079E+02 1.83062E+02 5.55112E-15 3.57961E-03-1.25566E-13
 -1        94-4.85565E+01-2.16485E+02-1.59932E+02-1.23442E+01-2.48884E+01-1.08001E+01
 -1        95-5.38365E+01-2.30899E+02-1.63164E+02 8.55982E-14-1.41035E+01-2.06279E-13
 -1        96-4.85565E+01-2.16485E+02-1.59932E+02 1.23442E+01-2.48884E+01 1.08001E+01
 -1        97-6.07948E+01-1.78525E+02-1.93408E+02 2.16271E-13 4.09533E+01-6.57252E-14
 -1        98 1.23564E+00 1.17386E+00-1.18793E+00-6.16351E-12 3.54444E+00-4.48763E-12
 -1        99-2.35976E-01 9.57213E-01-1.26473E+00-5.79161E+00 1.32624E+01 2.82964E-01
 -1       100-3.07461E-01 3.82169E-01-8.64124E-01-1.09106E-11 7.87837E+00 1.19322E-11
 -1       101-2.35976E-01 9.57213E-01-1.26473E+00 5.79161E+00 1.32624E+01-2.82964E-01
 -1       102-1.73419E+00-9.24728E-01 5.08765E-01-8.53628E-12 3.70672E+00 2.48601E-12