    1C
    1UUSER                                                              
    1UDATE              24.november.2019                                
    1UTIME              19:38:01                                        
    1UHOST                                                              
    1UPGM               CalculiX                                        
    1UVERSION           Version 2.16                             
    1UCOMPILETIME       So 24. Nov 18:30:58 CET 2019                    
    1UDIR                                                               
    1UDBN                                                               
    1UMAT    1EL                                                        
    2C                             8                                     1
 -1         1 0.00000E+00 0.00000E+00 0.00000E+00
 -1         2 1.00000E+00 0.00000E+00 0.00000E+00
 -1         3 1.00000E+00 1.00000E+00 0.00000E+00
 -1         4 0.00000E+00 1.00000E+00 0.00000E+00
 -1         5 5.00000E-01 0.00000E+00 0.00000E+00
 -1         6 1.00000E+00 5.00000E-01 0.00000E+00
 -1         7 5.00000E-01 1.00000E+00 0.00000E+00
 -1         8 0.00000E+00 5.00000E-01 0.00000E+00
 -3
    3C                             1                                     1
 -1         1   10    0    1
 -2         1         2         3         4         5         6         7         8
 -3
    1PSTEP                         1           1           1          
  100CL  101 1.000000000           8                     0    1           1
 -4  DISP        4    1
 -5  D1          1    2    1    0
 -5  D2          1    2    2    0
 -5  D3          1    2    3    0
 -5  ALL         1    2    0    0    1ALL
 -1         1 0.00000E+00 0.00000E+00 0.00000E+00
 -1         2-1.85714E-06 0.00000E+00 0.00000E+00
 -1         3-1.85714E-06 4.33333E-06 0.00000E+00
 -1         4 8.47033E-22 4.33333E-06 0.00000E+00
 -1         5-9.28571E-07 0.00000E+00 0.00000E+00
 -1         6-1.85714E-06 2.16667E-06 0.00000E+00
 -1         7-9.28571E-07 4.33333E-06 0.00000E+00
 -1         8 1.05879E-22 2.16667E-06 0.00000E+00
 -3
    1PSTEP                         2           1           1          
  100CL  101 1.000000000           8                     0    1           1
 -4  STRESS      6    1
 -5  SXX         1    4    1    1
 -5  SYY         1    4    2    2
 -5  SZZ         1    4    3    3
 -5  SXY         1    4    1    2
 -5  SYZ         1    4    2    3
 -5  SZX         1    4    3    1
 -1         1-5.14048E-16 1.00002E+00 3.00006E-01-9.39090E-17-3.51121E-17-1.57462E-17
 -1         2-1.47168E-16 1.00002E+00 3.00006E-01 6.41494E-16 3.96112E-17-3.92084E-17
 -1         3 6.00739E-16 1.00002E+00 3.00006E-01 3.86634E-16 8.51553E-17 6.74824E-17
 -1         4-1.25933E-16 1.00002E+00 3.00006E-01 1.58701E-16-2.83683E-17 1.57198E-17
 -1         5-5.07924E-16 1.00005E+00 3.00015E-01 2.37905E-16-3.29784E-17-2.55572E-17
 -1         6 6.05723E-16 1.00005E+00 3.00015E-01-1.95656E-16-2.41083E-18-2.69892E-18
 -1         7 1.13172E-16 1.00005E+00 3.00015E-01 9.27708E-17 9.62851E-17-2.96975E-17
 -1         8-4.45360E-16 1.00005E+00 3.00015E-01 7.73604E-17 6.32971E-18 7.90104E-18
 -3
    1PSTEP                         3           1           1          
  100CL  101 1.000000000           8                     0    1           1
 -4  FORC        4    1
 -5  F1          1    2    1    0
 -5  F2          1    2    2    0
 -5  F3          1    2    3    0
 -5  ALL         1    2    0    0    1ALL
 -1         1 1.65822E-16-1.66667E-01-3.46945E-18
 -1         2-3.61896E-17-1.66667E-01 3.12250E-17
 -1         3 1.50379E-16 1.66667E-01 3.46945E-18
 -1         4 6.79162E-17 1.66667E-01 3.46945E-18
 -1         5-2.19617E-16-6.66667E-01 1.38778E-17
 -1         6 3.55592E-17-3.97252E-16-2.77556E-17
 -1         7-1.80584E-16 6.66667E-01 0.00000E+00
 -1         8 1.67147E-17-7.48099E-18 0.00000E+00
 -3
 9999
