    1C
    1UModel: beam     Date: 10-Mar-1998                                 
    1UUSER                                                              
    1UDATE              24.november.2019                                
    1UTIME              19:38:02                                        
    1UHOST                                                              
    1UPGM               CalculiX                                        
    1UVERSION           Version 2.16                             
    1UCOMPILETIME       So 24. Nov 18:30:58 CET 2019                    
    1UDIR                                                               
    1UDBN                                                               
    1UMAT    1EL                                                        
    2C                           261                                     1
 -1         1 0.00000E+00 0.00000E+00 0.00000E+00
 -1         2 1.00000E+00 0.00000E+00 0.00000E+00
 -1         3 1.00000E+00 1.00000E+00 0.00000E+00
 -1         4 0.00000E+00 1.00000E+00 0.00000E+00
 -1         5 0.00000E+00 0.00000E+00 8.00000E+00
 -1         6 1.00000E+00 0.00000E+00 8.00000E+00
 -1         7 1.00000E+00 1.00000E+00 8.00000E+00
 -1         8 0.00000E+00 1.00000E+00 8.00000E+00
 -1         9 2.50000E-01 0.00000E+00 0.00000E+00
 -1        10 5.00000E-01 0.00000E+00 0.00000E+00
 -1        11 7.50000E-01 0.00000E+00 0.00000E+00
 -1        12 1.00000E+00 2.50000E-01 0.00000E+00
 -1        13 1.00000E+00 5.00000E-01 0.00000E+00
 -1        14 1.00000E+00 7.50000E-01 0.00000E+00
 -1        15 7.50000E-01 1.00000E+00 0.00000E+00
 -1        16 5.00000E-01 1.00000E+00 0.00000E+00
 -1        17 2.50000E-01 1.00000E+00 0.00000E+00
 -1        18 0.00000E+00 7.50000E-01 0.00000E+00
 -1        19 0.00000E+00 5.00000E-01 0.00000E+00
 -1        20 0.00000E+00 2.50000E-01 0.00000E+00
 -1        21 2.50000E-01 0.00000E+00 8.00000E+00
 -1        22 5.00000E-01 0.00000E+00 8.00000E+00
 -1        23 7.50000E-01 0.00000E+00 8.00000E+00
 -1        24 1.00000E+00 2.50000E-01 8.00000E+00
 -1        25 1.00000E+00 5.00000E-01 8.00000E+00
 -1        26 1.00000E+00 7.50000E-01 8.00000E+00
 -1        27 7.50000E-01 1.00000E+00 8.00000E+00
 -1        28 5.00000E-01 1.00000E+00 8.00000E+00
 -1        29 2.50000E-01 1.00000E+00 8.00000E+00
 -1        30 0.00000E+00 7.50000E-01 8.00000E+00
 -1        31 0.00000E+00 5.00000E-01 8.00000E+00
 -1        32 0.00000E+00 2.50000E-01 8.00000E+00
 -1        33 1.00000E+00 0.00000E+00 5.00000E-01
 -1        34 1.00000E+00 0.00000E+00 1.00000E+00
 -1        35 1.00000E+00 0.00000E+00 1.50000E+00
 -1        36 1.00000E+00 0.00000E+00 2.00000E+00
 -1        37 1.00000E+00 0.00000E+00 2.50000E+00
 -1        38 1.00000E+00 0.00000E+00 3.00000E+00
 -1        39 1.00000E+00 0.00000E+00 3.50000E+00
 -1        40 1.00000E+00 0.00000E+00 4.00000E+00
 -1        41 1.00000E+00 0.00000E+00 4.50000E+00
 -1        42 1.00000E+00 0.00000E+00 5.00000E+00
 -1        43 1.00000E+00 0.00000E+00 5.50000E+00
 -1        44 1.00000E+00 0.00000E+00 6.00000E+00
 -1        45 1.00000E+00 0.00000E+00 6.50000E+00
 -1        46 1.00000E+00 0.00000E+00 7.00000E+00
 -1        47 1.00000E+00 0.00000E+00 7.50000E+00
 -1        48 0.00000E+00 0.00000E+00 7.50000E+00
 -1        49 0.00000E+00 0.00000E+00 7.00000E+00
 -1        50 0.00000E+00 0.00000E+00 6.50000E+00
 -1        51 0.00000E+00 0.00000E+00 6.00000E+00
 -1        52 0.00000E+00 0.00000E+00 5.50000E+00
 -1        53 0.00000E+00 0.00000E+00 5.00000E+00
 -1        54 0.00000E+00 0.00000E+00 4.50000E+00
 -1        55 0.00000E+00 0.00000E+00 4.00000E+00
 -1        56 0.00000E+00 0.00000E+00 3.50000E+00
 -1        57 0.00000E+00 0.00000E+00 3.00000E+00
 -1        58 0.00000E+00 0.00000E+00 2.50000E+00
 -1        59 0.00000E+00 0.00000E+00 2.00000E+00
 -1        60 0.00000E+00 0.00000E+00 1.50000E+00
 -1        61 0.00000E+00 0.00000E+00 1.00000E+00
 -1        62 0.00000E+00 0.00000E+00 5.00000E-01
 -1        63 1.00000E+00 1.00000E+00 5.00000E-01
 -1        64 1.00000E+00 1.00000E+00 1.00000E+00
 -1        65 1.00000E+00 1.00000E+00 1.50000E+00
 -1        66 1.00000E+00 1.00000E+00 2.00000E+00
 -1        67 1.00000E+00 1.00000E+00 2.50000E+00
 -1        68 1.00000E+00 1.00000E+00 3.00000E+00
 -1        69 1.00000E+00 1.00000E+00 3.50000E+00
 -1        70 1.00000E+00 1.00000E+00 4.00000E+00
 -1        71 1.00000E+00 1.00000E+00 4.50000E+00
 -1        72 1.00000E+00 1.00000E+00 5.00000E+00
 -1        73 1.00000E+00 1.00000E+00 5.50000E+00
 -1        74 1.00000E+00 1.00000E+00 6.00000E+00
 -1        75 1.00000E+00 1.00000E+00 6.50000E+00
 -1        76 1.00000E+00 1.00000E+00 7.00000E+00
 -1        77 1.00000E+00 1.00000E+00 7.50000E+00
 -1        78 0.00000E+00 1.00000E+00 5.00000E-01
 -1        79 0.00000E+00 1.00000E+00 1.00000E+00
 -1        80 0.00000E+00 1.00000E+00 1.50000E+00
 -1        81 0.00000E+00 1.00000E+00 2.00000E+00
 -1        82 0.00000E+00 1.00000E+00 2.50000E+00
 -1        83 0.00000E+00 1.00000E+00 3.00000E+00
 -1        84 0.00000E+00 1.00000E+00 3.50000E+00
 -1        85 0.00000E+00 1.00000E+00 4.00000E+00
 -1        86 0.00000E+00 1.00000E+00 4.50000E+00
 -1        87 0.00000E+00 1.00000E+00 5.00000E+00
 -1        88 0.00000E+00 1.00000E+00 5.50000E+00
 -1        89 0.00000E+00 1.00000E+00 6.00000E+00
 -1        90 0.00000E+00 1.00000E+00 6.50000E+00
 -1        91 0.00000E+00 1.00000E+00 7.00000E+00
 -1        92 0.00000E+00 1.00000E+00 7.50000E+00
 -1        93 5.00000E-01 2.50000E-01 0.00000E+00
 -1        94 2.50000E-01 5.00000E-01 0.00000E+00
 -1        95 5.00000E-01 5.00000E-01 0.00000E+00
 -1        96 7.50000E-01 5.00000E-01 0.00000E+00
 -1        97 5.00000E-01 7.50000E-01 0.00000E+00
 -1        98 5.00000E-01 2.50000E-01 8.00000E+00
 -1        99 2.50000E-01 5.00000E-01 8.00000E+00
 -1       100 5.00000E-01 5.00000E-01 8.00000E+00
 -1       101 7.50000E-01 5.00000E-01 8.00000E+00
 -1       102 5.00000E-01 7.50000E-01 8.00000E+00
 -1       103 5.00000E-01 0.00000E+00 5.00000E-01
 -1       104 2.50000E-01 0.00000E+00 1.00000E+00
 -1       105 5.00000E-01 0.00000E+00 1.00000E+00
 -1       106 7.50000E-01 0.00000E+00 1.00000E+00
 -1       107 5.00000E-01 0.00000E+00 1.50000E+00
 -1       108 2.50000E-01 0.00000E+00 2.00000E+00
 -1       109 5.00000E-01 0.00000E+00 2.00000E+00
 -1       110 7.50000E-01 0.00000E+00 2.00000E+00
 -1       111 5.00000E-01 0.00000E+00 2.50000E+00
 -1       112 2.50000E-01 0.00000E+00 3.00000E+00
 -1       113 5.00000E-01 0.00000E+00 3.00000E+00
 -1       114 7.50000E-01 0.00000E+00 3.00000E+00
 -1       115 5.00000E-01 0.00000E+00 3.50000E+00
 -1       116 2.50000E-01 0.00000E+00 4.00000E+00
 -1       117 5.00000E-01 0.00000E+00 4.00000E+00
 -1       118 7.50000E-01 0.00000E+00 4.00000E+00
 -1       119 5.00000E-01 0.00000E+00 4.50000E+00
 -1       120 2.50000E-01 0.00000E+00 5.00000E+00
 -1       121 5.00000E-01 0.00000E+00 5.00000E+00
 -1       122 7.50000E-01 0.00000E+00 5.00000E+00
 -1       123 5.00000E-01 0.00000E+00 5.50000E+00
 -1       124 2.50000E-01 0.00000E+00 6.00000E+00
 -1       125 5.00000E-01 0.00000E+00 6.00000E+00
 -1       126 7.50000E-01 0.00000E+00 6.00000E+00
 -1       127 5.00000E-01 0.00000E+00 6.50000E+00
 -1       128 2.50000E-01 0.00000E+00 7.00000E+00
 -1       129 5.00000E-01 0.00000E+00 7.00000E+00
 -1       130 7.50000E-01 0.00000E+00 7.00000E+00
 -1       131 5.00000E-01 0.00000E+00 7.50000E+00
 -1       132 1.00000E+00 5.00000E-01 5.00000E-01
 -1       133 1.00000E+00 2.50000E-01 1.00000E+00
 -1       134 1.00000E+00 5.00000E-01 1.00000E+00
 -1       135 1.00000E+00 7.50000E-01 1.00000E+00
 -1       136 1.00000E+00 5.00000E-01 1.50000E+00
 -1       137 1.00000E+00 2.50000E-01 2.00000E+00
 -1       138 1.00000E+00 5.00000E-01 2.00000E+00
 -1       139 1.00000E+00 7.50000E-01 2.00000E+00
 -1       140 1.00000E+00 5.00000E-01 2.50000E+00
 -1       141 1.00000E+00 2.50000E-01 3.00000E+00
 -1       142 1.00000E+00 5.00000E-01 3.00000E+00
 -1       143 1.00000E+00 7.50000E-01 3.00000E+00
 -1       144 1.00000E+00 5.00000E-01 3.50000E+00
 -1       145 1.00000E+00 2.50000E-01 4.00000E+00
 -1       146 1.00000E+00 5.00000E-01 4.00000E+00
 -1       147 1.00000E+00 7.50000E-01 4.00000E+00
 -1       148 1.00000E+00 5.00000E-01 4.50000E+00
 -1       149 1.00000E+00 2.50000E-01 5.00000E+00
 -1       150 1.00000E+00 5.00000E-01 5.00000E+00
 -1       151 1.00000E+00 7.50000E-01 5.00000E+00
 -1       152 1.00000E+00 5.00000E-01 5.50000E+00
 -1       153 1.00000E+00 2.50000E-01 6.00000E+00
 -1       154 1.00000E+00 5.00000E-01 6.00000E+00
 -1       155 1.00000E+00 7.50000E-01 6.00000E+00
 -1       156 1.00000E+00 5.00000E-01 6.50000E+00
 -1       157 1.00000E+00 2.50000E-01 7.00000E+00
 -1       158 1.00000E+00 5.00000E-01 7.00000E+00
 -1       159 1.00000E+00 7.50000E-01 7.00000E+00
 -1       160 1.00000E+00 5.00000E-01 7.50000E+00
 -1       161 5.00000E-01 1.00000E+00 5.00000E-01
 -1       162 7.50000E-01 1.00000E+00 1.00000E+00
 -1       163 5.00000E-01 1.00000E+00 1.00000E+00
 -1       164 2.50000E-01 1.00000E+00 1.00000E+00
 -1       165 5.00000E-01 1.00000E+00 1.50000E+00
 -1       166 7.50000E-01 1.00000E+00 2.00000E+00
 -1       167 5.00000E-01 1.00000E+00 2.00000E+00
 -1       168 2.50000E-01 1.00000E+00 2.00000E+00
 -1       169 5.00000E-01 1.00000E+00 2.50000E+00
 -1       170 7.50000E-01 1.00000E+00 3.00000E+00
 -1       171 5.00000E-01 1.00000E+00 3.00000E+00
 -1       172 2.50000E-01 1.00000E+00 3.00000E+00
 -1       173 5.00000E-01 1.00000E+00 3.50000E+00
 -1       174 7.50000E-01 1.00000E+00 4.00000E+00
 -1       175 5.00000E-01 1.00000E+00 4.00000E+00
 -1       176 2.50000E-01 1.00000E+00 4.00000E+00
 -1       177 5.00000E-01 1.00000E+00 4.50000E+00
 -1       178 7.50000E-01 1.00000E+00 5.00000E+00
 -1       179 5.00000E-01 1.00000E+00 5.00000E+00
 -1       180 2.50000E-01 1.00000E+00 5.00000E+00
 -1       181 5.00000E-01 1.00000E+00 5.50000E+00
 -1       182 7.50000E-01 1.00000E+00 6.00000E+00
 -1       183 5.00000E-01 1.00000E+00 6.00000E+00
 -1       184 2.50000E-01 1.00000E+00 6.00000E+00
 -1       185 5.00000E-01 1.00000E+00 6.50000E+00
 -1       186 7.50000E-01 1.00000E+00 7.00000E+00
 -1       187 5.00000E-01 1.00000E+00 7.00000E+00
 -1       188 2.50000E-01 1.00000E+00 7.00000E+00
 -1       189 5.00000E-01 1.00000E+00 7.50000E+00
 -1       190 0.00000E+00 5.00000E-01 5.00000E-01
 -1       191 0.00000E+00 7.50000E-01 1.00000E+00
 -1       192 0.00000E+00 5.00000E-01 1.00000E+00
 -1       193 0.00000E+00 2.50000E-01 1.00000E+00
 -1       194 0.00000E+00 5.00000E-01 1.50000E+00
 -1       195 0.00000E+00 7.50000E-01 2.00000E+00
 -1       196 0.00000E+00 5.00000E-01 2.00000E+00
 -1       197 0.00000E+00 2.50000E-01 2.00000E+00
 -1       198 0.00000E+00 5.00000E-01 2.50000E+00
 -1       199 0.00000E+00 7.50000E-01 3.00000E+00
 -1       200 0.00000E+00 5.00000E-01 3.00000E+00
 -1       201 0.00000E+00 2.50000E-01 3.00000E+00
 -1       202 0.00000E+00 5.00000E-01 3.50000E+00
 -1       203 0.00000E+00 7.50000E-01 4.00000E+00
 -1       204 0.00000E+00 5.00000E-01 4.00000E+00
 -1       205 0.00000E+00 2.50000E-01 4.00000E+00
 -1       206 0.00000E+00 5.00000E-01 4.50000E+00
 -1       207 0.00000E+00 7.50000E-01 5.00000E+00
 -1       208 0.00000E+00 5.00000E-01 5.00000E+00
 -1       209 0.00000E+00 2.50000E-01 5.00000E+00
 -1       210 0.00000E+00 5.00000E-01 5.50000E+00
 -1       211 0.00000E+00 7.50000E-01 6.00000E+00
 -1       212 0.00000E+00 5.00000E-01 6.00000E+00
 -1       213 0.00000E+00 2.50000E-01 6.00000E+00
 -1       214 0.00000E+00 5.00000E-01 6.50000E+00
 -1       215 0.00000E+00 7.50000E-01 7.00000E+00
 -1       216 0.00000E+00 5.00000E-01 7.00000E+00
 -1       217 0.00000E+00 2.50000E-01 7.00000E+00
 -1       218 0.00000E+00 5.00000E-01 7.50000E+00
 -1       219 5.00000E-01 5.00000E-01 5.00000E-01
 -1       220 5.00000E-01 2.50000E-01 1.00000E+00
 -1       221 2.50000E-01 5.00000E-01 1.00000E+00
 -1       222 5.00000E-01 5.00000E-01 1.00000E+00
 -1       223 7.50000E-01 5.00000E-01 1.00000E+00
 -1       224 5.00000E-01 7.50000E-01 1.00000E+00
 -1       225 5.00000E-01 5.00000E-01 1.50000E+00
 -1       226 5.00000E-01 2.50000E-01 2.00000E+00
 -1       227 2.50000E-01 5.00000E-01 2.00000E+00
 -1       228 5.00000E-01 5.00000E-01 2.00000E+00
 -1       229 7.50000E-01 5.00000E-01 2.00000E+00
 -1       230 5.00000E-01 7.50000E-01 2.00000E+00
 -1       231 5.00000E-01 5.00000E-01 2.50000E+00
 -1       232 5.00000E-01 2.50000E-01 3.00000E+00
 -1       233 2.50000E-01 5.00000E-01 3.00000E+00
 -1       234 5.00000E-01 5.00000E-01 3.00000E+00
 -1       235 7.50000E-01 5.00000E-01 3.00000E+00
 -1       236 5.00000E-01 7.50000E-01 3.00000E+00
 -1       237 5.00000E-01 5.00000E-01 3.50000E+00
 -1       238 5.00000E-01 2.50000E-01 4.00000E+00
 -1       239 2.50000E-01 5.00000E-01 4.00000E+00
 -1       240 5.00000E-01 5.00000E-01 4.00000E+00
 -1       241 7.50000E-01 5.00000E-01 4.00000E+00
 -1       242 5.00000E-01 7.50000E-01 4.00000E+00
 -1       243 5.00000E-01 5.00000E-01 4.50000E+00
 -1       244 5.00000E-01 2.50000E-01 5.00000E+00
 -1       245 2.50000E-01 5.00000E-01 5.00000E+00
 -1       246 5.00000E-01 5.00000E-01 5.00000E+00
 -1       247 7.50000E-01 5.00000E-01 5.00000E+00
 -1       248 5.00000E-01 7.50000E-01 5.00000E+00
 -1       249 5.00000E-01 5.00000E-01 5.50000E+00
 -1       250 5.00000E-01 2.50000E-01 6.00000E+00
 -1       251 2.50000E-01 5.00000E-01 6.00000E+00
 -1       252 5.00000E-01 5.00000E-01 6.00000E+00
 -1       253 7.50000E-01 5.00000E-01 6.00000E+00
 -1       254 5.00000E-01 7.50000E-01 6.00000E+00
 -1       255 5.00000E-01 5.00000E-01 6.50000E+00
 -1       256 5.00000E-01 2.50000E-01 7.00000E+00
 -1       257 2.50000E-01 5.00000E-01 7.00000E+00
 -1       258 5.00000E-01 5.00000E-01 7.00000E+00
 -1       259 7.50000E-01 5.00000E-01 7.00000E+00
 -1       260 5.00000E-01 7.50000E-01 7.00000E+00
 -1       261 5.00000E-01 5.00000E-01 7.50000E+00
 -3
    3C                            32                                     1
 -1         1    4    0    1
 -2         1        10        95        19        61       105       222       192         9        93
 -2        94        20        62       103       219       190       104       220       221       193
 -1         2    4    0    1
 -2        10         2        13        95       105        34       134       222        11        12
 -2        96        93       103        33       132       219       106       133       223       220
 -1         3    4    0    1
 -2        19        95        16         4       192       222       163        79        94        97
 -2        17        18       190       219       161        78       221       224       164       191
 -1         4    4    0    1
 -2        95        13         3        16       222       134        64       163        96        14
 -2        15        97       219       132        63       161       223       135       162       224
 -1         5    4    0    1
 -2        61       105       222       192        59       109       228       196       104       220
 -2       221       193        60       107       225       194       108       226       227       197
 -1         6    4    0    1
 -2       105        34       134       222       109        36       138       228       106       133
 -2       223       220       107        35       136       225       110       137       229       226
 -1         7    4    0    1
 -2       192       222       163        79       196       228       167        81       221       224
 -2       164       191       194       225       165        80       227       230       168       195
 -1         8    4    0    1
 -2       222       134        64       163       228       138        66       167       223       135
 -2       162       224       225       136        65       165       229       139       166       230
 -1         9    4    0    1
 -2        59       109       228       196        57       113       234       200       108       226
 -2       227       197        58       111       231       198       112       232       233       201
 -1        10    4    0    1
 -2       109        36       138       228       113        38       142       234       110       137
 -2       229       226       111        37       140       231       114       141       235       232
 -1        11    4    0    1
 -2       196       228       167        81       200       234       171        83       227       230
 -2       168       195       198       231       169        82       233       236       172       199
 -1        12    4    0    1
 -2       228       138        66       167       234       142        68       171       229       139
 -2       166       230       231       140        67       169       235       143       170       236
 -1        13    4    0    1
 -2        57       113       234       200        55       117       240       204       112       232
 -2       233       201        56       115       237       202       116       238       239       205
 -1        14    4    0    1
 -2       113        38       142       234       117        40       146       240       114       141
 -2       235       232       115        39       144       237       118       145       241       238
 -1        15    4    0    1
 -2       200       234       171        83       204       240       175        85       233       236
 -2       172       199       202       237       173        84       239       242       176       203
 -1        16    4    0    1
 -2       234       142        68       171       240       146        70       175       235       143
 -2       170       236       237       144        69       173       241       147       174       242
 -1        17    4    0    1
 -2        55       117       240       204        53       121       246       208       116       238
 -2       239       205        54       119       243       206       120       244       245       209
 -1        18    4    0    1
 -2       117        40       146       240       121        42       150       246       118       145
 -2       241       238       119        41       148       243       122       149       247       244
 -1        19    4    0    1
 -2       204       240       175        85       208       246       179        87       239       242
 -2       176       203       206       243       177        86       245       248       180       207
 -1        20    4    0    1
 -2       240       146        70       175       246       150        72       179       241       147
 -2       174       242       243       148        71       177       247       151       178       248
 -1        21    4    0    1
 -2        53       121       246       208        51       125       252       212       120       244
 -2       245       209        52       123       249       210       124       250       251       213
 -1        22    4    0    1
 -2       121        42       150       246       125        44       154       252       122       149
 -2       247       244       123        43       152       249       126       153       253       250
 -1        23    4    0    1
 -2       208       246       179        87       212       252       183        89       245       248
 -2       180       207       210       249       181        88       251       254       184       211
 -1        24    4    0    1
 -2       246       150        72       179       252       154        74       183       247       151
 -2       178       248       249       152        73       181       253       155       182       254
 -1        25    4    0    1
 -2        51       125       252       212        49       129       258       216       124       250
 -2       251       213        50       127       255       214       128       256       257       217
 -1        26    4    0    1
 -2       125        44       154       252       129        46       158       258       126       153
 -2       253       250       127        45       156       255       130       157       259       256
 -1        27    4    0    1
 -2       212       252       183        89       216       258       187        91       251       254
 -2       184       211       214       255       185        90       257       260       188       215
 -1        28    4    0    1
 -2       252       154        74       183       258       158        76       187       253       155
 -2       182       254       255       156        75       185       259       159       186       260
 -1        29    4    0    1
 -2        49       129       258       216         5        22       100        31       128       256
 -2       257       217        48       131       261       218        21        98        99        32
 -1        30    4    0    1
 -2       129        46       158       258        22         6        25       100       130       157
 -2       259       256       131        47       160       261        23        24       101        98
 -1        31    4    0    1
 -2       216       258       187        91        31       100        28         8       257       260
 -2       188       215       218       261       189        92        99       102        29        30
 -1        32    4    0    1
 -2       258       158        76       187       100        25         7        28       259       159
 -2       186       260       261       160        77       189       101        26        27       102
 -3
    1PSTEP                         1           1           1          
  100CL  101 1.000000000         261                     0    1           1
 -4  DISP        4    1
 -5  D1          1    2    1    0
 -5  D2          1    2    2    0
 -5  D3          1    2    3    0
 -5  ALL         1    2    0    0    1ALL
 -1         1 3.39783E-02 3.39783E-02 3.39783E-02
 -1         2-3.39455E-02 3.39455E-02 3.39455E-02
 -1         3 0.00000E+00 0.00000E+00 0.00000E+00
 -1         4 0.00000E+00 0.00000E+00 0.00000E+00
 -1         5 3.39393E-02 3.39393E-02-3.39393E-02
 -1         6-3.40119E-02 3.40119E-02-3.40119E-02
 -1         7 0.00000E+00 0.00000E+00 0.00000E+00
 -1         8 0.00000E+00 0.00000E+00 0.00000E+00
 -1         9 0.00000E+00 3.70029E-02 3.70029E-02
 -1        10 0.00000E+00 3.71419E-02 3.71419E-02
 -1        11 0.00000E+00 3.70064E-02 3.70064E-02
 -1        12-3.12217E-02 0.00000E+00 3.12217E-02
 -1        13 0.00000E+00-4.21839E-02-0.00000E+00
 -1        14 0.00000E+00-3.13043E-02-0.00000E+00
 -1        15-3.09616E-03 0.00000E+00-0.00000E+00
 -1        16-1.27547E-06 0.00000E+00-0.00000E+00
 -1        17 3.15955E-03 0.00000E+00-0.00000E+00
 -1        18-0.00000E+00-3.13611E-02-0.00000E+00
 -1        19-0.00000E+00-4.21757E-02-0.00000E+00
 -1        20 3.12896E-02 0.00000E+00 3.12896E-02
 -1        21 0.00000E+00 3.70199E-02-3.70199E-02
 -1        22 0.00000E+00 3.71629E-02-3.71629E-02
 -1        23 0.00000E+00 3.70313E-02-3.70313E-02
 -1        24-3.12659E-02 0.00000E+00-3.12659E-02
 -1        25 0.00000E+00-4.22467E-02 0.00000E+00
 -1        26 0.00000E+00-3.13813E-02 0.00000E+00
 -1        27-3.13527E-03 0.00000E+00 0.00000E+00
 -1        28-2.32769E-05 0.00000E+00 0.00000E+00
 -1        29 3.23515E-03 0.00000E+00 0.00000E+00
 -1        30-0.00000E+00-3.14146E-02 0.00000E+00
 -1        31-0.00000E+00-4.21040E-02 0.00000E+00
 -1        32 3.13087E-02 0.00000E+00-3.13087E-02
 -1        33-3.95621E-02 3.95621E-02 0.00000E+00
 -1        34-3.48537E-02 3.48537E-02 0.00000E+00
 -1        35-2.00968E-02 2.00968E-02 0.00000E+00
 -1        36-3.63156E-03 3.63156E-03 0.00000E+00
 -1        37 1.28869E-02-1.28869E-02 0.00000E+00
 -1        38 2.94058E-02-2.94058E-02 0.00000E+00
 -1        39 4.30540E-02-4.30540E-02 0.00000E+00
 -1        40 5.02052E-02-5.02052E-02 0.00000E+00
 -1        41 4.30359E-02-4.30359E-02 0.00000E+00
 -1        42 2.93681E-02-2.93681E-02 0.00000E+00
 -1        43 1.28329E-02-1.28329E-02 0.00000E+00
 -1        44-3.70017E-03 3.70017E-03 0.00000E+00
 -1        45-2.01764E-02 2.01764E-02 0.00000E+00
 -1        46-3.49432E-02 3.49432E-02 0.00000E+00
 -1        47-3.96563E-02 3.96563E-02 0.00000E+00
 -1        48 3.94747E-02 3.94747E-02 0.00000E+00
 -1        49 3.46738E-02 3.46738E-02 0.00000E+00
 -1        50 1.97961E-02 1.97961E-02 0.00000E+00
 -1        51 3.20218E-03 3.20218E-03 0.00000E+00
 -1        52-1.34492E-02-1.34492E-02 0.00000E+00
 -1        53-3.00984E-02-3.00984E-02 0.00000E+00
 -1        54-4.38299E-02-4.38299E-02 0.00000E+00
 -1        55-5.10171E-02-5.10171E-02 0.00000E+00
 -1        56-4.37966E-02-4.37966E-02 0.00000E+00
 -1        57-3.00368E-02-3.00368E-02 0.00000E+00
 -1        58-1.33716E-02-1.33716E-02 0.00000E+00
 -1        59 3.28943E-03 3.28943E-03 0.00000E+00
 -1        60 1.98829E-02 1.98829E-02 0.00000E+00
 -1        61 3.47551E-02 3.47551E-02 0.00000E+00
 -1        62 3.95455E-02 3.95455E-02 0.00000E+00
 -1        63-3.53510E-02-3.53510E-02 0.00000E+00
 -1        64-3.16591E-02-3.16591E-02 0.00000E+00
 -1        65-1.83874E-02-1.83874E-02 0.00000E+00
 -1        66-3.40676E-03-3.40676E-03 0.00000E+00
 -1        67 1.20488E-02 1.20488E-02 0.00000E+00
 -1        68 2.74248E-02 2.74248E-02 0.00000E+00
 -1        69 4.02131E-02 4.02131E-02 0.00000E+00
 -1        70 4.67230E-02 4.67230E-02 0.00000E+00
 -1        71 4.01747E-02 4.01747E-02 0.00000E+00
 -1        72 2.73528E-02 2.73528E-02 0.00000E+00
 -1        73 1.19548E-02 1.19548E-02 0.00000E+00
 -1        74-3.51558E-03-3.51558E-03 0.00000E+00
 -1        75-1.85004E-02-1.85004E-02 0.00000E+00
 -1        76-3.17694E-02-3.17694E-02 0.00000E+00
 -1        77-3.54541E-02-3.54541E-02 0.00000E+00
 -1        78 3.54795E-02-3.54795E-02 0.00000E+00
 -1        79 3.18654E-02-3.18654E-02 0.00000E+00
 -1        80 1.87062E-02-1.87062E-02 0.00000E+00
 -1        81 3.84857E-03-3.84857E-03 0.00000E+00
 -1        82-1.14708E-02 1.14708E-02 0.00000E+00
 -1        83-2.67110E-02 2.67110E-02 0.00000E+00
 -1        84-3.93963E-02 3.93963E-02 0.00000E+00
 -1        85-4.58433E-02 4.58433E-02 0.00000E+00
 -1        86-3.93131E-02 3.93131E-02 0.00000E+00
 -1        87-2.65517E-02 2.65517E-02 0.00000E+00
 -1        88-1.12595E-02 1.12595E-02 0.00000E+00
 -1        89 4.09855E-03-4.09855E-03 0.00000E+00
 -1        90 1.89765E-02-1.89765E-02 0.00000E+00
 -1        91 3.21498E-02-3.21498E-02 0.00000E+00
 -1        92 3.57596E-02-3.57596E-02 0.00000E+00
 -1        93 0.00000E+00 0.00000E+00 2.20265E-02
 -1        94 5.30840E-03-3.29027E-03-0.00000E+00
 -1        95 3.06781E-05-1.74248E-02-0.00000E+00
 -1        96-5.28167E-03-3.31447E-03-0.00000E+00
 -1        97 2.23129E-05-5.23411E-03-0.00000E+00
 -1        98 0.00000E+00 0.00000E+00-2.20332E-02
 -1        99 5.29619E-03-3.34445E-03 0.00000E+00
 -1       100 6.27489E-05-1.74871E-02 0.00000E+00
 -1       101-5.26617E-03-3.35779E-03 0.00000E+00
 -1       102 4.15461E-05-5.25692E-03 0.00000E+00
 -1       103 0.00000E+00 4.75985E-02 0.00000E+00
 -1       104 0.00000E+00 3.80675E-02 0.00000E+00
 -1       105 0.00000E+00 3.81639E-02 0.00000E+00
 -1       106 0.00000E+00 3.80949E-02 0.00000E+00
 -1       107 0.00000E+00 1.45365E-02 0.00000E+00
 -1       108 0.00000E+00-1.15249E-02 0.00000E+00
 -1       109 0.00000E+00-1.14342E-02 0.00000E+00
 -1       110 0.00000E+00-1.14591E-02 0.00000E+00
 -1       111 0.00000E+00-3.83868E-02 0.00000E+00
 -1       112 0.00000E+00-6.58694E-02 0.00000E+00
 -1       113 0.00000E+00-6.61354E-02 0.00000E+00
 -1       114 0.00000E+00-6.57497E-02 0.00000E+00
 -1       115 0.00000E+00-8.86168E-02 0.00000E+00
 -1       116 0.00000E+00-9.92267E-02 0.00000E+00
 -1       117 0.00000E+00-1.00000E-01 0.00000E+00
 -1       118 0.00000E+00-9.90713E-02 0.00000E+00
 -1       119 0.00000E+00-8.86358E-02 0.00000E+00
 -1       120 0.00000E+00-6.59078E-02 0.00000E+00
 -1       121 0.00000E+00-6.61660E-02 0.00000E+00
 -1       122 0.00000E+00-6.57720E-02 0.00000E+00
 -1       123 0.00000E+00-3.84184E-02 0.00000E+00
 -1       124 0.00000E+00-1.15638E-02 0.00000E+00
 -1       125 0.00000E+00-1.14611E-02 0.00000E+00
 -1       126 0.00000E+00-1.14743E-02 0.00000E+00
 -1       127 0.00000E+00 1.45222E-02 0.00000E+00
 -1       128 0.00000E+00 3.80599E-02 0.00000E+00
 -1       129 0.00000E+00 3.81673E-02 0.00000E+00
 -1       130 0.00000E+00 3.81090E-02 0.00000E+00
 -1       131 0.00000E+00 4.76191E-02 0.00000E+00
 -1       132-4.57391E-02 0.00000E+00 0.00000E+00
 -1       133-4.32723E-02 0.00000E+00 0.00000E+00
 -1       134-4.34281E-02 0.00000E+00 0.00000E+00
 -1       135-4.33037E-02 0.00000E+00 0.00000E+00
 -1       136-3.20163E-02 0.00000E+00 0.00000E+00
 -1       137-1.96951E-02 0.00000E+00 0.00000E+00
 -1       138-1.97066E-02 0.00000E+00 0.00000E+00
 -1       139-1.95165E-02 0.00000E+00 0.00000E+00
 -1       140-7.74110E-03 0.00000E+00 0.00000E+00
 -1       141 4.05550E-03 0.00000E+00 0.00000E+00
 -1       142 4.33615E-03 0.00000E+00 0.00000E+00
 -1       143 4.94023E-03 0.00000E+00 0.00000E+00
 -1       144 1.53043E-02 0.00000E+00 0.00000E+00
 -1       145 2.17764E-02 0.00000E+00 0.00000E+00
 -1       146 2.16668E-02 0.00000E+00 0.00000E+00
 -1       147 2.18910E-02 0.00000E+00 0.00000E+00
 -1       148 1.52818E-02 0.00000E+00 0.00000E+00
 -1       149 4.00817E-03 0.00000E+00 0.00000E+00
 -1       150 4.29268E-03 0.00000E+00 0.00000E+00
 -1       151 4.90069E-03 0.00000E+00 0.00000E+00
 -1       152-7.79920E-03 0.00000E+00 0.00000E+00
 -1       153-1.97716E-02 0.00000E+00 0.00000E+00
 -1       154-1.97759E-02 0.00000E+00 0.00000E+00
 -1       155-1.95784E-02 0.00000E+00 0.00000E+00
 -1       156-3.20910E-02 0.00000E+00 0.00000E+00
 -1       157-4.33589E-02 0.00000E+00 0.00000E+00
 -1       158-4.35069E-02 0.00000E+00 0.00000E+00
 -1       159-4.33735E-02 0.00000E+00 0.00000E+00
 -1       160-4.58182E-02 0.00000E+00 0.00000E+00
 -1       161 0.00000E+00-3.92018E-02 0.00000E+00