    1C
    1UUSER                                                              
    1UDATE              24.november.2019                                
    1UTIME              19:38:05                                        
    1UHOST                                                              
    1UPGM               CalculiX                                        
    1UVERSION           Version 2.16                             
    1UCOMPILETIME       So 24. Nov 18:30:58 CET 2019                    
    1UDIR                                                               
    1UDBN                                                               
    1UMAT    1EL                                                        
    2C                            51                                     1
 -1        22-7.45058E-09-7.45058E-09-5.00000E-03
 -1        23-7.45058E-09-7.45058E-09 0.00000E+00
 -1        24-7.45058E-09-7.45058E-09 5.00000E-03
 -1        25 5.00000E-01-7.45058E-09-1.50000E-02
 -1        26 5.00000E-01-7.45058E-09 0.00000E+00
 -1        27 5.00000E-01-7.45058E-09 1.50000E-02
 -1        28 5.00000E-01 5.00000E-01-1.50000E-02
 -1        29 5.00000E-01 5.00000E-01 0.00000E+00
 -1        30 5.00000E-01 5.00000E-01 1.50000E-02
 -1        31-7.45058E-09 5.00000E-01-5.00000E-03
 -1        32-7.45058E-09 5.00000E-01 0.00000E+00
 -1        33-7.45058E-09 5.00000E-01 5.00000E-03
 -1        34 2.50000E-01-7.45058E-09-1.00000E-02
 -1        36 2.50000E-01-7.45058E-09 1.00000E-02
 -1        37 5.00000E-01 2.50000E-01-1.50000E-02
 -1        39 5.00000E-01 2.50000E-01 1.50000E-02
 -1        40 2.50000E-01 5.00000E-01-1.00000E-02
 -1        42 2.50000E-01 5.00000E-01 1.00000E-02
 -1        43-7.45058E-09 2.50000E-01-5.00000E-03
 -1        45-7.45058E-09 2.50000E-01 5.00000E-03
 -1        46 5.00000E-01 1.00000E+00-1.50000E-02
 -1        47 5.00000E-01 1.00000E+00 0.00000E+00
 -1        48 5.00000E-01 1.00000E+00 1.50000E-02
 -1        49-7.45058E-09 1.00000E+00-5.00000E-03
 -1        50-7.45058E-09 1.00000E+00 0.00000E+00
 -1        51-7.45058E-09 1.00000E+00 5.00000E-03
 -1        52 5.00000E-01 7.50000E-01-1.50000E-02
 -1        54 5.00000E-01 7.50000E-01 1.50000E-02
 -1        55 2.50000E-01 1.00000E+00-1.00000E-02
 -1        57 2.50000E-01 1.00000E+00 1.00000E-02
 -1        58-7.45058E-09 7.50000E-01-5.00000E-03
 -1        60-7.45058E-09 7.50000E-01 5.00000E-03
 -1        61 1.00000E+00-7.45058E-09-1.00000E-02
 -1        62 1.00000E+00-7.45058E-09 0.00000E+00
 -1        63 1.00000E+00-7.45058E-09 1.00000E-02
 -1        64 1.00000E+00 5.00000E-01-1.00000E-02
 -1        65 1.00000E+00 5.00000E-01 0.00000E+00
 -1        66 1.00000E+00 5.00000E-01 1.00000E-02
 -1        67 7.50000E-01-7.45058E-09-1.25000E-02
 -1        69 7.50000E-01-7.45058E-09 1.25000E-02
 -1        70 1.00000E+00 2.50000E-01-1.00000E-02
 -1        72 1.00000E+00 2.50000E-01 1.00000E-02
 -1        73 7.50000E-01 5.00000E-01-1.25000E-02
 -1        75 7.50000E-01 5.00000E-01 1.25000E-02
 -1        76 1.00000E+00 1.00000E+00-1.00000E-02
 -1        77 1.00000E+00 1.00000E+00 0.00000E+00
 -1        78 1.00000E+00 1.00000E+00 1.00000E-02
 -1        79 1.00000E+00 7.50000E-01-1.00000E-02
 -1        81 1.00000E+00 7.50000E-01 1.00000E-02
 -1        82 7.50000E-01 1.00000E+00-1.25000E-02
 -1        84 7.50000E-01 1.00000E+00 1.25000E-02
 -3
    3C                             4                                     1
 -1         1    4    0    1
 -2        22        25        28        31        24        27        30        33        34        37
 -2        40        43        23        26        29        32        36        39        42        45
 -1         2    4    0    1
 -2        31        28        46        49        33        30        48        51        40        52
 -2        55        58        32        29        47        50        42        54        57        60
 -1         3    4    0    1
 -2        25        61        64        28        27        63        66        30        67        70
 -2        73        37        26        62        65        29        69        72        75        39
 -1         4    4    0    1
 -2        28        64        76        46        30        66        78        48        73        79
 -2        82        52        29        65        77        47        75        81        84        54
 -3
    1PSTEP                         1           1           1          
  100CL  101 1.000000000          51                     0    1           1
 -4  DISP        4    1
 -5  D1          1    2    1    0
 -5  D2          1    2    2    0
 -5  D3          1    2    3    0
 -5  ALL         1    2    0    0    1ALL
 -1        22 0.00000E+00 0.00000E+00 1.11045E-06
 -1        23 0.00000E+00 0.00000E+00 0.00000E+00
 -1        24 0.00000E+00 0.00000E+00-1.11045E-06
 -1        25 8.44907E-05 2.44271E-05 6.98130E-07
 -1        26 8.44907E-05 2.44271E-05 0.00000E+00
 -1        27 8.44907E-05 2.44271E-05-6.98130E-07
 -1        28 1.34055E-04-2.09308E-12 4.33149E-07
 -1        29 1.34055E-04-2.09308E-12 0.00000E+00
 -1        30 1.34055E-04-2.09308E-12-4.33149E-07
 -1        31 0.00000E+00 0.00000E+00 6.91799E-07
 -1        32 0.00000E+00 0.00000E+00 0.00000E+00
 -1        33 0.00000E+00 0.00000E+00-6.91799E-07
 -1        34 6.36947E-05 4.12793E-05 6.37052E-07
 -1        36 6.36947E-05 4.12793E-05-6.37052E-07
 -1        37 1.36851E-04 2.49637E-05 5.65639E-07
 -1        39 1.36851E-04 2.49637E-05-5.65639E-07
 -1        40 7.32877E-05-7.07748E-13 8.10022E-07
 -1        42 7.32877E-05-7.07748E-13-8.10022E-07
 -1        43 0.00000E+00 0.00000E+00 9.01126E-07
 -1        45 0.00000E+00 0.00000E+00-9.01126E-07
 -1        46 8.44907E-05-2.44271E-05 6.98130E-07
 -1        47 8.44907E-05-2.44271E-05 0.00000E+00
 -1        48 8.44907E-05-2.44271E-05-6.98130E-07
 -1        49 0.00000E+00 0.00000E+00 1.11045E-06
 -1        50 0.00000E+00 0.00000E+00 0.00000E+00
 -1        51 0.00000E+00 0.00000E+00-1.11045E-06
 -1        52 1.36851E-04-2.49637E-05 5.65639E-07
 -1        54 1.36851E-04-2.49637E-05-5.65639E-07
 -1        55 6.36947E-05-4.12793E-05 6.37052E-07
 -1        57 6.36947E-05-4.12793E-05-6.37052E-07
 -1        58 0.00000E+00 0.00000E+00 9.01126E-07
 -1        60 0.00000E+00 0.00000E+00-9.01126E-07
 -1        61 1.21454E-04-2.93827E-05-1.72949E-06
 -1        62 1.21454E-04-2.93827E-05 0.00000E+00
 -1        63 1.21454E-04-2.93827E-05 1.72949E-06
 -1        64 4.54946E-04-4.93394E-12 3.76180E-06
 -1        65 4.54946E-04-4.93394E-12 0.00000E+00
 -1        66 4.54946E-04-4.93394E-12-3.76180E-06
 -1        67 1.33020E-04 2.50319E-05-3.01887E-07
 -1        69 1.33020E-04 2.50319E-05 3.01887E-07
 -1        70 1.86281E-04-1.63368E-05 1.01616E-06
 -1        72 1.86281E-04-1.63368E-05-1.01616E-06
 -1        73 2.59708E-04-3.38833E-12 1.89943E-06
 -1        75 2.59708E-04-3.38833E-12-1.89943E-06
 -1        76 1.21454E-04 2.93827E-05-1.72949E-06
 -1        77 1.21454E-04 2.93827E-05 0.00000E+00
 -1        78 1.21454E-04 2.93827E-05 1.72949E-06
 -1        79 1.86281E-04 1.63368E-05 1.01616E-06
 -1        81 1.86281E-04 1.63368E-05-1.01616E-06
 -1        82 1.33020E-04-2.50320E-05-3.01887E-07
 -1        84 1.33020E-04-2.50320E-05 3.01887E-07
 -3
    1PSTEP                         2           1           1          
  100CL  101 1.000000000          51                     0    1           1
 -4  STRESS      6    1
 -5  SXX         1    4    1    1
 -5  SYY         1    4    2    2
 -5  SZZ         1    4    3    3
 -5  SXY         1    4    1    2
 -5  SYZ         1    4    2    3
 -5  SZX         1    4    3    1
 -1        22 8.44008E+01 1.71867E+01 1.43763E-02 2.24639E+01-1.21899E-02-4.73605E-01
 -1        23 8.44008E+01 1.71867E+01 1.43763E-02 2.24639E+01 4.82106E-14-1.99840E-15
 -1        24 8.44008E+01 1.71867E+01 1.43763E-02 2.24639E+01 1.21899E-02 4.73605E-01
 -1        25 2.13539E+01 9.64883E+00 7.26877E-03 1.85516E+01-3.72588E-02-6.35030E-02
 -1        26 2.13539E+01 9.64883E+00 7.26877E-03 1.85516E+01 2.06530E-13-6.55448E-14
 -1        27 2.13539E+01 9.64883E+00 7.26877E-03 1.85516E+01 3.72588E-02 6.35030E-02
 -1        28 3.83476E+01-2.81010E+01-1.93841E-02-1.46854E-07 8.05918E-10 8.20695E-02
 -1        29 3.83476E+01-2.81010E+01-1.93841E-02-1.46854E-07-1.47706E-13 1.47105E-14
 -1        30 3.83476E+01-2.81010E+01-1.93841E-02-1.46854E-07-8.06214E-10-8.20695E-02
 -1        31 7.92308E+01 1.56323E+01 3.43517E-03-8.04684E-08 1.60795E-09-1.00723E-01
 -1        32 7.92308E+01 1.56323E+01 3.43517E-03-8.04684E-08 2.44193E-14 3.93678E-14
 -1        33 7.92308E+01 1.56323E+01 3.43517E-03-8.04684E-08-1.60791E-09 1.00723E-01
 -1        34 4.66354E+01 1.14327E+01-1.05655E-03 1.65960E+01 2.22013E-04-2.00621E-01
 -1        36 4.66354E+01 1.14327E+01-1.05655E-03 1.65960E+01-2.22013E-04 2.00621E-01
 -1        37 2.98508E+01-9.22608E+00-6.05766E-03 2.17025E+00-3.72588E-02 9.28326E-03
 -1        39 2.98508E+01-9.22608E+00-6.05766E-03 2.17025E+00 3.72588E-02-9.28326E-03
 -1        40 6.24512E+01-5.24123E+00 3.38285E-03-1.44003E-07 1.43337E-09-1.73783E-01
 -1        42 6.24512E+01-5.24123E+00 3.38285E-03-1.44003E-07-1.43351E-09 1.73783E-01
 -1        43 8.18158E+01 1.64095E+01 8.90570E-03 1.11005E+01-1.21899E-02-2.87164E-01
 -1        45 8.18158E+01 1.64095E+01 8.90570E-03 1.11005E+01 1.21899E-02 2.87164E-01
 -1        46 2.13539E+01 9.64883E+00 7.26877E-03-1.85516E+01 3.72588E-02-6.35030E-02
 -1        47 2.13539E+01 9.64883E+00 7.26877E-03-1.85516E+01 4.93269E-14 2.10665E-13
 -1        48 2.13539E+01 9.64883E+00 7.26877E-03-1.85516E+01-3.72588E-02 6.35030E-02
 -1        49 8.44008E+01 1.71867E+01 1.43762E-02-2.24639E+01 1.21899E-02-4.73605E-01
 -1        50 8.44008E+01 1.71867E+01 1.43762E-02-2.24639E+01-2.00211E-13-2.25486E-13
 -1        51 8.44008E+01 1.71867E+01 1.43762E-02-2.24639E+01-1.21899E-02 4.73605E-01
 -1        52 2.98508E+01-9.22608E+00-6.05766E-03-2.17025E+00 3.72588E-02 9.28326E-03
 -1        54 2.98508E+01-9.22608E+00-6.05766E-03-2.17025E+00-3.72588E-02-9.28326E-03
 -1        55 4.66354E+01 1.14327E+01-1.05654E-03-1.65960E+01-2.22005E-04-2.00621E-01
 -1        57 4.66354E+01 1.14327E+01-1.05654E-03-1.65960E+01 2.22005E-04 2.00621E-01
 -1        58 8.18158E+01 1.64095E+01 8.90571E-03-1.11005E+01 1.21899E-02-2.87164E-01
 -1        60 8.18158E+01 1.64095E+01 8.90571E-03-1.11005E+01-1.21899E-02 2.87164E-01
 -1        61-7.76671E+01-2.14453E+01-6.39124E-02-4.69848E+01 8.42694E-01-6.44398E-01
 -1        62-7.76671E+01-2.14453E+01-6.39124E-02-4.69848E+01 1.72418E-13 2.94764E-13
 -1        63-7.76671E+01-2.14453E+01-6.39124E-02-4.69848E+01-8.42694E-01 6.44398E-01
 -1        64 1.74961E+02 5.99138E+01 7.70021E-02 7.26986E-08 6.05427E-09 9.36372E-01
 -1        65 1.74961E+02 5.99138E+01 7.70021E-02 7.26986E-08-8.40161E-14-5.07178E-13
 -1        66 1.74961E+02 5.99138E+01 7.70021E-02 7.26986E-08-6.05443E-09-9.36372E-01
 -1        67-2.19146E+01-3.91321E+00-1.64427E-02-1.03048E+01 3.77771E-01-4.21883E-01
 -1        69-2.19146E+01-3.91321E+00-1.64427E-02-1.03048E+01-3.77771E-01 4.21883E-01
 -1        70 4.86470E+01 1.92343E+01 6.54485E-03 3.21039E+01 8.42694E-01 1.45987E-01
 -1        72 4.86470E+01 1.92343E+01 6.54485E-03 3.21039E+01-8.42694E-01-1.45987E-01
 -1        73 1.02992E+02 1.49133E+01 1.74517E-02-6.73602E-09 3.20366E-09 6.73677E-01
 -1        75 1.02992E+02 1.49133E+01 1.74517E-02-6.73605E-09-3.20387E-09-6.73677E-01
 -1        76-7.76671E+01-2.14453E+01-6.39124E-02 4.69848E+01-8.42694E-01-6.44398E-01
 -1        77-7.76671E+01-2.14453E+01-6.39124E-02 4.69848E+01 7.42739E-14-2.92988E-13
 -1        78-7.76671E+01-2.14453E+01-6.39124E-02 4.69848E+01 8.42694E-01 6.44398E-01
 -1        79 4.86470E+01 1.92343E+01 6.54484E-03-3.21039E+01-8.42694E-01 1.45987E-01
 -1        81 4.86470E+01 1.92343E+01 6.54484E-03-3.21039E+01 8.42694E-01-1.45987E-01
 -1        82-2.19146E+01-3.91321E+00-1.64428E-02 1.03048E+01-3.77771E-01-4.21883E-01
 -1        84-2.19146E+01-3.91321E+00-1.64428E-02 1.03048E+01 3.77771E-01 4.21883E-01
 -3
 9999
