
 displacements (vx,vy,vz) for set NALL and time  0.1000000E+01

         1 -3.184708E-19  1.111486E-05  1.300513E-18
         2 -3.342604E-19 -1.008770E-05  5.022485E-19
         3 -6.323218E-06 -1.025968E-05 -1.568257E-19
         4 -9.278427E-06  1.126108E-05  4.950908E-19
         5 -6.560838E-06  1.126108E-05  6.560838E-06
         6 -4.471190E-06 -1.025968E-05  4.471190E-06
         7  5.901955E-06 -5.252875E-06  2.570540E-19
         8  0.000000E+00  0.000000E+00  0.000000E+00
         9  0.000000E+00  0.000000E+00  0.000000E+00
        10  4.173313E-06 -5.252875E-06 -4.173313E-06
        11  3.269499E-06  1.065123E-06  6.208222E-19
        12 -8.082354E-06  1.096864E-05  3.347821E-06
        13  2.311885E-06  1.065123E-06 -2.311885E-06
        14 -5.259444E-06 -9.915715E-06  2.178533E-06
        15  2.095072E-07  4.934389E-07 -5.784970E-20
        16 -3.665157E-06 -2.089746E-06  3.809490E-19
        17 -2.591657E-06 -2.089746E-06  2.591657E-06
        18  1.481440E-07  4.934389E-07 -1.481440E-07
        19 -2.265925E-06 -2.060445E-06  1.220191E-19
        20  0.000000E+00  0.000000E+00  0.000000E+00
        21 -1.602251E-06 -2.060445E-06  1.602251E-06
        22  5.122957E-06 -5.397111E-06 -2.121998E-06
        23  1.987880E-20  1.126108E-05  9.278427E-06
        24  4.936614E-20 -1.025968E-05  6.323218E-06
        25  0.000000E+00  0.000000E+00  0.000000E+00
        26 -1.720014E-19 -5.252875E-06 -5.901955E-06
        27 -3.347821E-06  1.096864E-05  8.082354E-06
        28 -3.354250E-19  1.065123E-06 -3.269499E-06
        29 -2.178533E-06 -9.915715E-06  5.259444E-06
        30 -8.585473E-20 -2.089746E-06  3.665157E-06
        31 -1.304068E-20  4.934389E-07 -2.095072E-07
        32  0.000000E+00  0.000000E+00  0.000000E+00
        33  6.694355E-22 -2.060445E-06  2.265925E-06
        34  2.121998E-06 -5.397111E-06 -5.122957E-06
        35  6.560838E-06  1.126108E-05  6.560838E-06
        36  4.471190E-06 -1.025968E-05  4.471190E-06
        37  0.000000E+00  0.000000E+00  0.000000E+00
        38 -4.173313E-06 -5.252875E-06 -4.173313E-06
        39  3.347821E-06  1.096864E-05  8.082354E-06
        40 -2.311885E-06  1.065123E-06 -2.311885E-06
        41  2.178533E-06 -9.915715E-06  5.259444E-06
        42  2.591657E-06 -2.089746E-06  2.591657E-06
        43 -1.481440E-07  4.934389E-07 -1.481440E-07
        44  0.000000E+00  0.000000E+00  0.000000E+00
        45  1.602251E-06 -2.060445E-06  1.602251E-06
        46 -2.121998E-06 -5.397111E-06 -5.122957E-06
        47  9.278427E-06  1.126108E-05  1.456500E-18
        48  6.323218E-06 -1.025968E-05  7.193427E-19
        49  0.000000E+00  0.000000E+00  0.000000E+00
        50 -5.901955E-06 -5.252875E-06 -9.918226E-20
        51  8.082354E-06  1.096864E-05  3.347821E-06
        52 -3.269499E-06  1.065123E-06  1.281137E-20
        53  5.259444E-06 -9.915715E-06  2.178533E-06
        54  3.665157E-06 -2.089746E-06  7.068622E-19
        55 -2.095072E-07  4.934389E-07  3.420433E-19
        56  0.000000E+00  0.000000E+00  0.000000E+00
        57  2.265925E-06 -2.060445E-06  2.720729E-19
        58 -5.122957E-06 -5.397111E-06 -2.121998E-06
        59  6.560838E-06  1.126108E-05 -6.560838E-06
        60  4.471190E-06 -1.025968E-05 -4.471190E-06
        61  0.000000E+00  0.000000E+00  0.000000E+00
        62 -4.173313E-06 -5.252875E-06  4.173313E-06
        63  8.082354E-06  1.096864E-05 -3.347821E-06
        64 -2.311885E-06  1.065123E-06  2.311885E-06
        65  5.259444E-06 -9.915715E-06 -2.178533E-06
        66  2.591657E-06 -2.089746E-06 -2.591657E-06
        67 -1.481440E-07  4.934389E-07  1.481440E-07
        68  0.000000E+00  0.000000E+00  0.000000E+00
        69  1.602251E-06 -2.060445E-06 -1.602251E-06
        70 -5.122957E-06 -5.397111E-06  2.121998E-06
        71  4.401130E-19  1.126108E-05 -9.278427E-06
        72  2.477571E-19 -1.025968E-05 -6.323218E-06
        73  0.000000E+00  0.000000E+00  0.000000E+00
        74 -2.866148E-19 -5.252875E-06  5.901955E-06
        75  3.347821E-06  1.096864E-05 -8.082354E-06
        76 -4.324136E-19  1.065123E-06  3.269499E-06
        77  2.178533E-06 -9.915715E-06 -5.259444E-06
        78  7.367863E-20 -2.089746E-06 -3.665157E-06
        79  1.439162E-19  4.934389E-07  2.095072E-07
        80  0.000000E+00  0.000000E+00  0.000000E+00
        81 -1.913703E-20 -2.060445E-06 -2.265925E-06
        82 -2.121998E-06 -5.397111E-06  5.122957E-06
        83 -6.560838E-06  1.126108E-05 -6.560838E-06
        84 -4.471190E-06 -1.025968E-05 -4.471190E-06
        85  0.000000E+00  0.000000E+00  0.000000E+00
        86  4.173313E-06 -5.252875E-06  4.173313E-06
        87 -3.347821E-06  1.096864E-05 -8.082354E-06
        88  2.311885E-06  1.065123E-06  2.311885E-06
        89 -2.178533E-06 -9.915715E-06 -5.259444E-06
        90 -2.591657E-06 -2.089746E-06 -2.591657E-06
        91  1.481440E-07  4.934389E-07  1.481440E-07
        92  0.000000E+00  0.000000E+00  0.000000E+00
        93 -1.602251E-06 -2.060445E-06 -1.602251E-06
        94  2.121998E-06 -5.397111E-06  5.122957E-06
        95 -8.082354E-06  1.096864E-05 -3.347821E-06
        96 -5.259444E-06 -9.915715E-06 -2.178533E-06
        97  0.000000E+00  0.000000E+00  0.000000E+00
        98  5.122957E-06 -5.397111E-06  2.121998E-06
        99  2.120255E-05  0.000000E+00  0.000000E+00
       100 -3.184708E-19  1.111486E-05  1.300513E-18
       101 -3.342604E-19 -1.008770E-05  5.022485E-19

 forces (fx,fy,fz) for set NCOUP1 and time  0.1000000E+01

         5 -1.006140E-16  6.250000E-02  2.130240E-15
        12  1.484923E-15  6.250000E-02 -4.302114E-16
         4  8.110781E-16  6.250000E-02  2.967245E-15
        95  6.318730E-16  6.250000E-02  2.279427E-15
        83  6.503045E-16  6.250000E-02  3.028827E-15
        87  1.356120E-15  6.250000E-02  3.771289E-15
        71  6.323609E-16  6.250000E-02  3.157197E-15
        75 -1.033245E-16  6.250000E-02  5.703771E-15
        59 -2.311573E-15  6.250000E-02 -7.771561E-16
        63  2.237793E-16  6.250000E-02  3.282097E-15
        47  1.830133E-15  6.250000E-02  4.839878E-15
        51 -2.198274E-15  6.250000E-02  8.066464E-16
        35  4.728748E-16  6.250000E-02  1.356554E-15
        39 -1.020451E-15  6.250000E-02  2.983724E-15
        23  3.941075E-17  6.250000E-02  1.644084E-15
        27 -1.474515E-16  6.250000E-02  6.432355E-15

 total force (fx,fy,fz) for set NCOUP1 and time  0.1000000E+01

        2.251170E-15  1.000000E+00  4.317597E-14

 forces (fx,fy,fz) for set NCOUP2 and time  0.1000000E+01

         6 -4.994377E-16 -6.250000E-02 -5.707240E-16
        14 -5.394990E-16 -6.250000E-02 -7.459311E-17
         3 -2.970714E-16 -6.250000E-02  8.005749E-16
        96 -1.042731E-15 -6.250000E-02 -1.372166E-15
        84 -8.446477E-16 -6.250000E-02  1.177877E-15
        89 -1.587543E-15 -6.250000E-02 -2.059984E-16
        72 -1.572933E-15 -6.250000E-02 -1.940722E-16
        77  1.383686E-15 -6.250000E-02  7.251144E-16
        60 -1.572120E-15 -6.250000E-02 -1.641048E-15
        65 -7.936360E-16 -6.250000E-02 -1.387779E-17
        48  1.468877E-15 -6.250000E-02  7.355228E-16
        53 -2.861481E-16 -6.250000E-02 -2.541370E-16
        36  4.534405E-16 -6.250000E-02  7.875645E-16
        41 -1.169692E-15 -6.250000E-02  6.331741E-17
        24 -1.101387E-15 -6.250000E-02 -1.639205E-15
        29  6.879805E-16 -6.250000E-02 -6.088879E-16

 total force (fx,fy,fz) for set NCOUP2 and time  0.1000000E+01

       -7.312862E-15 -1.000000E+00 -2.284739E-15
