    1C
    1UUSER                                                              
    1UDATE              24.november.2019                                
    1UTIME              19:38:28                                        
    1UHOST                                                              
    1UPGM               CalculiX                                        
    1UVERSION           Version 2.16                             
    1UCOMPILETIME       So 24. Nov 18:30:58 CET 2019                    
    1UDIR                                                               
    1UDBN                                                               
    1UMAT    1EL                                                        
    1UMAT    2SI1                                                       
    2C                          1156                                     1
 -1         1 5.00000E-01 0.00000E+00 2.50000E-01
 -1         2 5.00000E-01 0.00000E+00 0.00000E+00
 -1         3 4.99732E-01 1.63595E-02 0.00000E+00
 -1         4 4.99732E-01 1.63595E-02 2.50000E-01
 -1         5 5.15625E-01 0.00000E+00 2.50000E-01
 -1         6 5.15625E-01 0.00000E+00 0.00000E+00
 -1         7 5.15349E-01 1.68708E-02 0.00000E+00
 -1         8 5.15349E-01 1.68708E-02 2.50000E-01
 -1         9 4.98929E-01 3.27016E-02 0.00000E+00
 -1        10 4.98929E-01 3.27016E-02 2.50000E-01
 -1        11 5.14521E-01 3.37235E-02 0.00000E+00
 -1        12 5.14521E-01 3.37235E-02 2.50000E-01
 -1        13 4.97592E-01 4.90086E-02 0.00000E+00
 -1        14 4.97592E-01 4.90086E-02 2.50000E-01
 -1        15 5.13142E-01 5.05401E-02 0.00000E+00
 -1        16 5.13142E-01 5.05401E-02 2.50000E-01
 -1        17 4.95722E-01 6.52631E-02 0.00000E+00
 -1        18 4.95722E-01 6.52631E-02 2.50000E-01
 -1        19 5.11213E-01 6.73026E-02 0.00000E+00
 -1        20 5.11213E-01 6.73026E-02 2.50000E-01
 -1        21 4.93321E-01 8.14478E-02 0.00000E+00
 -1        22 4.93321E-01 8.14478E-02 2.50000E-01
 -1        23 5.08737E-01 8.39930E-02 0.00000E+00
 -1        24 5.08737E-01 8.39930E-02 2.50000E-01
 -1        25 4.90392E-01 9.75452E-02 0.00000E+00
 -1        26 4.90392E-01 9.75452E-02 2.50000E-01
 -1        27 5.05717E-01 1.00593E-01 0.00000E+00
 -1        28 5.05717E-01 1.00593E-01 2.50000E-01
 -1        29 4.86937E-01 1.13538E-01 0.00000E+00
 -1        30 4.86937E-01 1.13538E-01 2.50000E-01
 -1        31 5.02154E-01 1.17086E-01 0.00000E+00
 -1        32 5.02154E-01 1.17086E-01 2.50000E-01
 -1        33 4.82962E-01 1.29410E-01 0.00000E+00
 -1        34 4.82962E-01 1.29410E-01 2.50000E-01
 -1        35 4.98054E-01 1.33454E-01 0.00000E+00
 -1        36 4.98054E-01 1.33454E-01 2.50000E-01
 -1        37 4.78469E-01 1.45142E-01 0.00000E+00
 -1        38 4.78469E-01 1.45142E-01 2.50000E-01
 -1        39 4.93421E-01 1.49678E-01 0.00000E+00
 -1        40 4.93421E-01 1.49678E-01 2.50000E-01
 -1        41 4.73464E-01 1.60720E-01 0.00000E+00
 -1        42 4.73464E-01 1.60720E-01 2.50000E-01
 -1        43 4.88259E-01 1.65742E-01 0.00000E+00
 -1        44 4.88259E-01 1.65742E-01 2.50000E-01
 -1        45 4.67951E-01 1.76125E-01 0.00000E+00
 -1        46 4.67951E-01 1.76125E-01 2.50000E-01
 -1        47 4.82575E-01 1.81629E-01 0.00000E+00
 -1        48 4.82575E-01 1.81629E-01 2.50000E-01
 -1        49 4.61938E-01 1.91342E-01 0.00000E+00
 -1        50 4.61938E-01 1.91342E-01 2.50000E-01
 -1        51 4.76374E-01 1.97321E-01 0.00000E+00
 -1        52 4.76374E-01 1.97321E-01 2.50000E-01
 -1        53 4.55430E-01 2.06354E-01 0.00000E+00
 -1        54 4.55430E-01 2.06354E-01 2.50000E-01
 -1        55 4.69662E-01 2.12802E-01 0.00000E+00
 -1        56 4.69662E-01 2.12802E-01 2.50000E-01
 -1        57 4.48434E-01 2.21144E-01 0.00000E+00
 -1        58 4.48434E-01 2.21144E-01 2.50000E-01
 -1        59 4.62448E-01 2.28055E-01 0.00000E+00
 -1        60 4.62448E-01 2.28055E-01 2.50000E-01
 -1        61 4.40958E-01 2.35698E-01 0.00000E+00
 -1        62 4.40958E-01 2.35698E-01 2.50000E-01
 -1        63 4.54738E-01 2.43064E-01 0.00000E+00
 -1        64 4.54738E-01 2.43064E-01 2.50000E-01
 -1        65 4.33010E-01 2.50000E-01 0.00000E+00
 -1        66 4.33010E-01 2.50000E-01 2.50000E-01
 -1        67 4.46542E-01 2.57812E-01 0.00000E+00
 -1        68 4.46542E-01 2.57812E-01 2.50000E-01
 -1        69 5.31250E-01 0.00000E+00 2.50000E-01
 -1        70 5.31250E-01 0.00000E+00 0.00000E+00
 -1        71 5.30965E-01 1.73820E-02 0.00000E+00
 -1        72 5.30965E-01 1.73820E-02 2.50000E-01
 -1        73 5.30112E-01 3.47454E-02 0.00000E+00
 -1        74 5.30112E-01 3.47454E-02 2.50000E-01
 -1        75 5.28692E-01 5.20716E-02 0.00000E+00
 -1        76 5.28692E-01 5.20716E-02 2.50000E-01
 -1        77 5.26705E-01 6.93421E-02 0.00000E+00
 -1        78 5.26705E-01 6.93421E-02 2.50000E-01
 -1        79 5.24154E-01 8.65382E-02 0.00000E+00
 -1        80 5.24154E-01 8.65382E-02 2.50000E-01
 -1        81 5.21041E-01 1.03642E-01 0.00000E+00
 -1        82 5.21041E-01 1.03642E-01 2.50000E-01
 -1        83 5.17371E-01 1.20634E-01 0.00000E+00
 -1        84 5.17371E-01 1.20634E-01 2.50000E-01
 -1        85 5.13147E-01 1.37498E-01 0.00000E+00
 -1        86 5.13147E-01 1.37498E-01 2.50000E-01
 -1        87 5.08373E-01 1.54214E-01 0.00000E+00
 -1        88 5.08373E-01 1.54214E-01 2.50000E-01
 -1        89 5.03055E-01 1.70765E-01 0.00000E+00
 -1        90 5.03055E-01 1.70765E-01 2.50000E-01
 -1        91 4.97199E-01 1.87133E-01 0.00000E+00
 -1        92 4.97199E-01 1.87133E-01 2.50000E-01
 -1        93 4.90809E-01 2.03301E-01 0.00000E+00
 -1        94 4.90809E-01 2.03301E-01 2.50000E-01
 -1        95 4.83895E-01 2.19251E-01 0.00000E+00
 -1        96 4.83895E-01 2.19251E-01 2.50000E-01
 -1        97 4.76462E-01 2.34966E-01 0.00000E+00
 -1        98 4.76462E-01 2.34966E-01 2.50000E-01
 -1        99 4.68519E-01 2.50430E-01 0.00000E+00
 -1       100 4.68519E-01 2.50430E-01 2.50000E-01
 -1       101 4.60074E-01 2.65625E-01 0.00000E+00
 -1       102 4.60074E-01 2.65625E-01 2.50000E-01
 -1       103 5.46875E-01 0.00000E+00 2.50000E-01
 -1       104 5.46875E-01 0.00000E+00 0.00000E+00
 -1       105 5.46582E-01 1.78933E-02 0.00000E+00
 -1       106 5.46582E-01 1.78933E-02 2.50000E-01
 -1       107 5.45704E-01 3.57673E-02 0.00000E+00
 -1       108 5.45704E-01 3.57673E-02 2.50000E-01
 -1       109 5.44241E-01 5.36031E-02 0.00000E+00
 -1       110 5.44241E-01 5.36031E-02 2.50000E-01
 -1       111 5.42196E-01 7.13815E-02 0.00000E+00
 -1       112 5.42196E-01 7.13815E-02 2.50000E-01
 -1       113 5.39570E-01 8.90835E-02 0.00000E+00
 -1       114 5.39570E-01 8.90835E-02 2.50000E-01
 -1       115 5.36366E-01 1.06690E-01 0.00000E+00
 -1       116 5.36366E-01 1.06690E-01 2.50000E-01
 -1       117 5.32588E-01 1.24182E-01 0.00000E+00
 -1       118 5.32588E-01 1.24182E-01 2.50000E-01
 -1       119 5.28240E-01 1.41542E-01 0.00000E+00
 -1       120 5.28240E-01 1.41542E-01 2.50000E-01
 -1       121 5.23326E-01 1.58749E-01 0.00000E+00
 -1       122 5.23326E-01 1.58749E-01 2.50000E-01
 -1       123 5.17851E-01 1.75787E-01 0.00000E+00
 -1       124 5.17851E-01 1.75787E-01 2.50000E-01
 -1       125 5.11822E-01 1.92637E-01 0.00000E+00
 -1       126 5.11822E-01 1.92637E-01 2.50000E-01
 -1       127 5.05245E-01 2.09280E-01 0.00000E+00
 -1       128 5.05245E-01 2.09280E-01 2.50000E-01
 -1       129 4.98127E-01 2.25699E-01 0.00000E+00
 -1       130 4.98127E-01 2.25699E-01 2.50000E-01
 -1       131 4.90476E-01 2.41877E-01 0.00000E+00
 -1       132 4.90476E-01 2.41877E-01 2.50000E-01
 -1       133 4.82299E-01 2.57795E-01 0.00000E+00
 -1       134 4.82299E-01 2.57795E-01 2.50000E-01
 -1       135 4.73606E-01 2.73438E-01 0.00000E+00
 -1       136 4.73606E-01 2.73438E-01 2.50000E-01
 -1       137 5.62500E-01 0.00000E+00 2.50000E-01
 -1       138 5.62500E-01 0.00000E+00 0.00000E+00
 -1       139 5.62199E-01 1.84045E-02 0.00000E+00
 -1       140 5.62199E-01 1.84045E-02 2.50000E-01
 -1       141 5.61295E-01 3.67893E-02 0.00000E+00
 -1       142 5.61295E-01 3.67893E-02 2.50000E-01
 -1       143 5.59791E-01 5.51346E-02 0.00000E+00
 -1       144 5.59791E-01 5.51346E-02 2.50000E-01
 -1       145 5.57687E-01 7.34210E-02 0.00000E+00
 -1       146 5.57687E-01 7.34210E-02 2.50000E-01
 -1       147 5.54986E-01 9.16287E-02 0.00000E+00
 -1       148 5.54986E-01 9.16287E-02 2.50000E-01
 -1       149 5.51691E-01 1.09738E-01 0.00000E+00
 -1       150 5.51691E-01 1.09738E-01 2.50000E-01
 -1       151 5.47805E-01 1.27730E-01 0.00000E+00
 -1       152 5.47805E-01 1.27730E-01 2.50000E-01
 -1       153 5.43332E-01 1.45586E-01 0.00000E+00
 -1       154 5.43332E-01 1.45586E-01 2.50000E-01
 -1       155 5.38278E-01 1.63285E-01 0.00000E+00
 -1       156 5.38278E-01 1.63285E-01 2.50000E-01
 -1       157 5.32647E-01 1.80810E-01 0.00000E+00
 -1       158 5.32647E-01 1.80810E-01 2.50000E-01
 -1       159 5.26446E-01 1.98141E-01 0.00000E+00
 -1       160 5.26446E-01 1.98141E-01 2.50000E-01
 -1       161 5.19681E-01 2.15259E-01 0.00000E+00
 -1       162 5.19681E-01 2.15259E-01 2.50000E-01
 -1       163 5.12359E-01 2.32148E-01 0.00000E+00
 -1       164 5.12359E-01 2.32148E-01 2.50000E-01
 -1       165 5.04489E-01 2.48787E-01 0.00000E+00
 -1       166 5.04489E-01 2.48787E-01 2.50000E-01
 -1       167 4.96079E-01 2.65161E-01 0.00000E+00
 -1       168 4.96079E-01 2.65161E-01 2.50000E-01
 -1       169 4.87137E-01 2.81250E-01 0.00000E+00
 -1       170 4.87137E-01 2.81250E-01 2.50000E-01
 -1       171 5.78125E-01 0.00000E+00 2.50000E-01
 -1       172 5.78125E-01 0.00000E+00 0.00000E+00
 -1       173 5.77815E-01 1.89157E-02 0.00000E+00
 -1       174 5.77815E-01 1.89157E-02 2.50000E-01
 -1       175 5.76887E-01 3.78112E-02 0.00000E+00
 -1       176 5.76887E-01 3.78112E-02 2.50000E-01
 -1       177 5.75341E-01 5.66662E-02 0.00000E+00
 -1       178 5.75341E-01 5.66662E-02 2.50000E-01
 -1       179 5.73179E-01 7.54605E-02 0.00000E+00
 -1       180 5.73179E-01 7.54605E-02 2.50000E-01
 -1       181 5.70403E-01 9.41739E-02 0.00000E+00
 -1       182 5.70403E-01 9.41739E-02 2.50000E-01
 -1       183 5.67016E-01 1.12787E-01 0.00000E+00
 -1       184 5.67016E-01 1.12787E-01 2.50000E-01
 -1       185 5.63022E-01 1.31278E-01 0.00000E+00
 -1       186 5.63022E-01 1.31278E-01 2.50000E-01
 -1       187 5.58425E-01 1.49630E-01 0.00000E+00
 -1       188 5.58425E-01 1.49630E-01 2.50000E-01
 -1       189 5.53230E-01 1.67821E-01 0.00000E+00
 -1       190 5.53230E-01 1.67821E-01 2.50000E-01
 -1       191 5.47443E-01 1.85832E-01 0.00000E+00
 -1       192 5.47443E-01 1.85832E-01 2.50000E-01
 -1       193 5.41070E-01 2.03645E-01 0.00000E+00
 -1       194 5.41070E-01 2.03645E-01 2.50000E-01
 -1       195 5.34117E-01 2.21239E-01 0.00000E+00
 -1       196 5.34117E-01 2.21239E-01 2.50000E-01
 -1       197 5.26592E-01 2.38596E-01 0.00000E+00
 -1       198 5.26592E-01 2.38596E-01 2.50000E-01
 -1       199 5.18503E-01 2.55698E-01 0.00000E+00
 -1       200 5.18503E-01 2.55698E-01 2.50000E-01
 -1       201 5.09859E-01 2.72526E-01 0.00000E+00
 -1       202 5.09859E-01 2.72526E-01 2.50000E-01
 -1       203 5.00669E-01 2.89062E-01 0.00000E+00
 -1       204 5.00669E-01 2.89062E-01 2.50000E-01
 -1       205 5.93750E-01 0.00000E+00 2.50000E-01
 -1       206 5.93750E-01 0.00000E+00 0.00000E+00
 -1       207 5.93432E-01 1.94270E-02 0.00000E+00
 -1       208 5.93432E-01 1.94270E-02 2.50000E-01
 -1       209 5.92479E-01 3.88331E-02 0.00000E+00
 -1       210 5.92479E-01 3.88331E-02 2.50000E-01
 -1       211 5.90891E-01 5.81977E-02 0.00000E+00
 -1       212 5.90891E-01 5.81977E-02 2.50000E-01
 -1       213 5.88670E-01 7.74999E-02 0.00000E+00
 -1       214 5.88670E-01 7.74999E-02 2.50000E-01
 -1       215 5.85819E-01 9.67192E-02 0.00000E+00
 -1       216 5.85819E-01 9.67192E-02 2.50000E-01
 -1       217 5.82341E-01 1.15835E-01 0.00000E+00
 -1       218 5.82341E-01 1.15835E-01 2.50000E-01
 -1       219 5.78239E-01 1.34827E-01 0.00000E+00
 -1       220 5.78239E-01 1.34827E-01 2.50000E-01
 -1       221 5.73518E-01 1.53674E-01 0.00000E+00
 -1       222 5.73518E-01 1.53674E-01 2.50000E-01
 -1       223 5.68183E-01 1.72357E-01 0.00000E+00
 -1       224 5.68183E-01 1.72357E-01 2.50000E-01
 -1       225 5.62239E-01 1.90855E-01 0.00000E+00
 -1       226 5.62239E-01 1.90855E-01 2.50000E-01
 -1       227 5.55693E-01 2.09148E-01 0.00000E+00
 -1       228 5.55693E-01 2.09148E-01 2.50000E-01
 -1       229 5.48553E-01 2.27218E-01 0.00000E+00
 -1       230 5.48553E-01 2.27218E-01 2.50000E-01
 -1       231 5.40824E-01 2.45045E-01 0.00000E+00
 -1       232 5.40824E-01 2.45045E-01 2.50000E-01
 -1       233 5.32517E-01 2.62609E-01 0.00000E+00
 -1       234 5.32517E-01 2.62609E-01 2.50000E-01
 -1       235 5.23640E-01 2.79892E-01 0.00000E+00
 -1       236 5.23640E-01 2.79892E-01 2.50000E-01
 -1       237 5.14201E-01 2.96875E-01 0.00000E+00
 -1       238 5.14201E-01 2.96875E-01 2.50000E-01
 -1       239 6.09375E-01 0.00000E+00 2.50000E-01
 -1       240 6.09375E-01 0.00000E+00 0.00000E+00
 -1       241 6.09049E-01 1.99382E-02 0.00000E+00
 -1       242 6.09049E-01 1.99382E-02 2.50000E-01
 -1       243 6.08070E-01 3.98550E-02 0.00000E+00
 -1       244 6.08070E-01 3.98550E-02 2.50000E-01
 -1       245 6.06440E-01 5.97292E-02 0.00000E+00
 -1       246 6.06440E-01 5.97292E-02 2.50000E-01
 -1       247 6.04161E-01 7.95394E-02 0.00000E+00
 -1       248 6.04161E-01 7.95394E-02 2.50000E-01
 -1       249 6.01235E-01 9.92644E-02 0.00000E+00
 -1       250 6.01235E-01 9.92644E-02 2.50000E-01
 -1       251 5.97666E-01 1.18883E-01 0.00000E+00
 -1       252 5.97666E-01 1.18883E-01 2.50000E-01
 -1       253 5.93456E-01 1.38375E-01 0.00000E+00
 -1       254 5.93456E-01 1.38375E-01 2.50000E-01
 -1       255 5.88611E-01 1.57718E-01 0.00000E+00
 -1       256 5.88611E-01 1.57718E-01 2.50000E-01
 -1       257 5.83135E-01 1.76892E-01 0.00000E+00
 -1       258 5.83135E-01 1.76892E-01 2.50000E-01
 -1       259 5.77035E-01 1.95877E-01 0.00000E+00
 -1       260 5.77035E-01 1.95877E-01 2.50000E-01
 -1       261 5.70317E-01 2.14652E-01 0.00000E+00
 -1       262 5.70317E-01 2.14652E-01 2.50000E-01
 -1       263 5.62988E-01 2.33198E-01 0.00000E+00
 -1       264 5.62988E-01 2.33198E-01 2.50000E-01
 -1       265 5.55057E-01 2.51493E-01 0.00000E+00
 -1       266 5.55057E-01 2.51493E-01 2.50000E-01
 -1       267 5.46531E-01 2.69520E-01 0.00000E+00
 -1       268 5.46531E-01 2.69520E-01 2.50000E-01
 -1       269 5.37420E-01 2.87257E-01 0.00000E+00
 -1       270 5.37420E-01 2.87257E-01 2.50000E-01
 -1       271 5.27733E-01 3.04688E-01 0.00000E+00
 -1       272 5.27733E-01 3.04688E-01 2.50000E-01
 -1       273 6.25000E-01 0.00000E+00 2.50000E-01
 -1       274 6.25000E-01 0.00000E+00 0.00000E+00
 -1       275 6.24665E-01 2.04494E-02 0.00000E+00
 -1       276 6.24665E-01 2.04494E-02 2.50000E-01
 -1       277 6.23662E-01 4.08770E-02 0.00000E+00
 -1       278 6.23662E-01 4.08770E-02 2.50000E-01
 -1       279 6.21990E-01 6.12607E-02 0.00000E+00
 -1       280 6.21990E-01 6.12607E-02 2.50000E-01
 -1       281 6.19653E-01 8.15789E-02 0.00000E+00
 -1       282 6.19653E-01 8.15789E-02 2.50000E-01
 -1       283 6.16652E-01 1.01810E-01 0.00000E+00
 -1       284 6.16652E-01 1.01810E-01 2.50000E-01
 -1       285 6.12990E-01 1.21931E-01 0.00000E+00
 -1       286 6.12990E-01 1.21931E-01 2.50000E-01
 -1       287 6.08673E-01 1.41923E-01 0.00000E+00
 -1       288 6.08673E-01 1.41923E-01 2.50000E-01
 -1       289 6.03703E-01 1.61762E-01 0.00000E+00
 -1       290 6.03703E-01 1.61762E-01 2.50000E-01
 -1       291 5.98087E-01 1.81428E-01 0.00000E+00
 -1       292 5.98087E-01 1.81428E-01 2.50000E-01
 -1       293 5.91831E-01 2.00900E-01 0.00000E+00
 -1       294 5.91831E-01 2.00900E-01 2.50000E-01
 -1       295 5.84941E-01 2.20156E-01 0.00000E+00
 -1       296 5.84941E-01 2.20156E-01 2.50000E-01
 -1       297 5.77424E-01 2.39177E-01 0.00000E+00
 -1       298 5.77424E-01 2.39177E-01 2.50000E-01
 -1       299 5.69289E-01 2.57942E-01 0.00000E+00
 -1       300 5.69289E-01 2.57942E-01 2.50000E-01
 -1       301 5.60545E-01 2.76430E-01 0.00000E+00
 -1       302 5.60545E-01 2.76430E-01 2.50000E-01
 -1       303 5.51200E-01 2.94623E-01 0.00000E+00
 -1       304 5.51200E-01 2.94623E-01 2.50000E-01
 -1       305 5.41265E-01 3.12500E-01 0.00000E+00
 -1       306 5.41265E-01 3.12500E-01 2.50000E-01
 -1       307 6.40625E-01 0.00000E+00 2.50000E-01
 -1       308 6.40625E-01 0.00000E+00 0.00000E+00
 -1       309 6.40282E-01 2.09607E-02 0.00000E+00
 -1       310 6.40282E-01 2.09607E-02 2.50000E-01
 -1       311 6.39253E-01 4.18989E-02 0.00000E+00
 -1       312 6.39253E-01 4.18989E-02 2.50000E-01
 -1       313 6.37540E-01 6.27922E-02 0.00000E+00
 -1       314 6.37540E-01 6.27922E-02 2.50000E-01
 -1       315 6.35144E-01 8.36183E-02 0.00000E+00
 -1       316 6.35144E-01 8.36183E-02 2.50000E-01
 -1       317 6.32068E-01 1.04355E-01 0.00000E+00
 -1       318 6.32068E-01 1.04355E-01 2.50000E-01
 -1       319 6.28315E-01 1.24980E-01 0.00000E+00
 -1       320 6.28315E-01 1.24980E-01 2.50000E-01
 -1       321 6.23890E-01 1.45471E-01 0.00000E+00
 -1       322 6.23890E-01 1.45471E-01 2.50000E-01
 -1       323 6.18796E-01 1.65806E-01 0.00000E+00
 -1       324 6.18796E-01 1.65806E-01 2.50000E-01
 -1       325 6.13040E-01 1.85964E-01 0.00000E+00
 -1       326 6.13040E-01 1.85964E-01 2.50000E-01
 -1       327 6.06627E-01 2.05922E-01 0.00000E+00
 -1       328 6.06627E-01 2.05922E-01 2.50000E-01
 -1       329 5.99564E-01 2.25660E-01 0.00000E+00
 -1       330 5.99564E-01 2.25660E-01 2.50000E-01
 -1       331 5.91860E-01 2.45157E-01 0.00000E+00
 -1       332 5.91860E-01 2.45157E-01 2.50000E-01
 -1       333 5.83522E-01 2.64390E-01 0.00000E+00
 -1       334 5.83522E-01 2.64390E-01 2.50000E-01
 -1       335 5.74559E-01 2.83341E-01 0.00000E+00
 -1       336 5.74559E-01 2.83341E-01 2.50000E-01
 -1       337 5.64980E-01 3.01989E-01 0.00000E+00
 -1       338 5.64980E-01 3.01989E-01 2.50000E-01
 -1       339 5.54797E-01 3.20312E-01 0.00000E+00
 -1       340 5.54797E-01 3.20312E-01 2.50000E-01
 -1       341 6.56250E-01 0.00000E+00 2.50000E-01
 -1       342 6.56250E-01 0.00000E+00 0.00000E+00
 -1       343 6.55899E-01 2.14719E-02 0.00000E+00
 -1       344 6.55899E-01 2.14719E-02 2.50000E-01
 -1       345 6.54845E-01 4.29208E-02 0.00000E+00
 -1       346 6.54845E-01 4.29208E-02 2.50000E-01
 -1       347 6.53090E-01 6.43237E-02 0.00000E+00
 -1       348 6.53090E-01 6.43237E-02 2.50000E-01
 -1       349 6.50636E-01 8.56578E-02 0.00000E+00
 -1       350 6.50636E-01 8.56578E-02 2.50000E-01
 -1       351 6.47485E-01 1.06900E-01 0.00000E+00
 -1       352 6.47485E-01 1.06900E-01 2.50000E-01
 -1       353 6.43640E-01 1.28028E-01 0.00000E+00
 -1       354 6.43640E-01 1.28028E-01 2.50000E-01
 -1       355 6.39107E-01 1.49019E-01 0.00000E+00
 -1       356 6.39107E-01 1.49019E-01 2.50000E-01
 -1       357 6.33889E-01 1.69850E-01 0.00000E+00
 -1       358 6.33889E-01 1.69850E-01 2.50000E-01
 -1       359 6.27992E-01 1.90499E-01 0.00000E+00
 -1       360 6.27992E-01 1.90499E-01 2.50000E-01
 -1       361 6.21423E-01 2.10945E-01 0.00000E+00
 -1       362 6.21423E-01 2.10945E-01 2.50000E-01
 -1       363 6.14188E-01 2.31164E-01 0.00000E+00
 -1       364 6.14188E-01 2.31164E-01 2.50000E-01
 -1       365 6.06296E-01 2.51136E-01 0.00000E+00
 -1       366 6.06296E-01 2.51136E-01 2.50000E-01
 -1       367 5.97754E-01 2.70839E-01 0.00000E+00
 -1       368 5.97754E-01 2.70839E-01 2.50000E-01
 -1       369 5.88572E-01 2.90252E-01 0.00000E+00
 -1       370 5.88572E-01 2.90252E-01 2.50000E-01
 -1       371 5.78760E-01 3.09354E-01 0.00000E+00
 -1       372 5.78760E-01 3.09354E-01 2.50000E-01
 -1       373 5.68329E-01 3.28125E-01 0.00000E+00
 -1       374 5.68329E-01 3.28125E-01 2.50000E-01
 -1       375 6.71875E-01 0.00000E+00 2.50000E-01
 -1       376 6.71875E-01 0.00000E+00 0.00000E+00
 -1       377 6.71515E-01 2.19831E-02 0.00000E+00
 -1       378 6.71515E-01 2.19831E-02 2.50000E-01
 -1       379 6.70436E-01 4.39427E-02 0.00000E+00
 -1       380 6.70436E-01 4.39427E-02 2.50000E-01
 -1       381 6.68640E-01 6.58553E-02 0.00000E+00
 -1       382 6.68640E-01 6.58553E-02 2.50000E-01
 -1       383 6.66127E-01 8.76973E-02 0.00000E+00
 -1       384 6.66127E-01 8.76973E-02 2.50000E-01
 -1       385 6.62901E-01 1.09445E-01 0.00000E+00
 -1       386 6.62901E-01 1.09445E-01 2.50000E-01
 -1       387 6.58965E-01 1.31076E-01 0.00000E+00
 -1       388 6.58965E-01 1.31076E-01 2.50000E-01
 -1       389 6.54324E-01 1.52567E-01 0.00000E+00
 -1       390 6.54324E-01 1.52567E-01 2.50000E-01
 -1       391 6.48981E-01 1.73894E-01 0.00000E+00
 -1       392 6.48981E-01 1.73894E-01 2.50000E-01
 -1       393 6.42944E-01 1.95035E-01 0.00000E+00
 -1       394 6.42944E-01 1.95035E-01 2.50000E-01
 -1       395 6.36219E-01 2.15967E-01 0.00000E+00
 -1       396 6.36219E-01 2.15967E-01 2.50000E-01
 -1       397 6.28812E-01 2.36668E-01 0.00000E+00
 -1       398 6.28812E-01 2.36668E-01 2.50000E-01
 -1       399 6.20731E-01 2.57115E-01 0.00000E+00
 -1       400 6.20731E-01 2.57115E-01 2.50000E-01
 -1       401 6.11986E-01 2.77288E-01 0.00000E+00
 -1       402 6.11986E-01 2.77288E-01 2.50000E-01
 -1       403 6.02586E-01 2.97163E-01 0.00000E+00
 -1       404 6.02586E-01 2.97163E-01 2.50000E-01
 -1       405 5.92541E-01 3.16720E-01 0.00000E+00
 -1       406 5.92541E-01 3.16720E-01 2.50000E-01
 -1       407 5.81861E-01 3.35938E-01 0.00000E+00
 -1       408 5.81861E-01 3.35938E-01 2.50000E-01
 -1       409 6.87500E-01 0.00000E+00 2.50000E-01
 -1       410 6.87500E-01 0.00000E+00 0.00000E+00
 -1       411 6.87132E-01 2.24944E-02 0.00000E+00
 -1       412 6.87132E-01 2.24944E-02 2.50000E-01
 -1       413 6.86028E-01 4.49646E-02 0.00000E+00
 -1       414 6.86028E-01 4.49646E-02 2.50000E-01
 -1       415 6.84189E-01 6.73868E-02 0.00000E+00
 -1       416 6.84189E-01 6.73868E-02 2.50000E-01
 -1       417 6.81618E-01 8.97367E-02 0.00000E+00
 -1       418 6.81618E-01 8.97367E-02 2.50000E-01
 -1       419 6.78317E-01 1.11991E-01 0.00000E+00
 -1       420 6.78317E-01 1.11991E-01 2.50000E-01
 -1       421 6.74290E-01 1.34125E-01 0.00000E+00
 -1       422 6.74290E-01 1.34125E-01 2.50000E-01
 -1       423 6.69540E-01 1.56115E-01 0.00000E+00
 -1       424 6.69540E-01 1.56115E-01 2.50000E-01
 -1       425 6.64074E-01 1.77938E-01 0.00000E+00
 -1       426 6.64074E-01 1.77938E-01 2.50000E-01
 -1       427 6.57897E-01 1.99571E-01 0.00000E+00
 -1       428 6.57897E-01 1.99571E-01 2.50000E-01
 -1       429 6.51015E-01 2.20990E-01 0.00000E+00
 -1       430 6.51015E-01 2.20990E-01 2.50000E-01
 -1       431 6.43435E-01 2.42172E-01 0.00000E+00
 -1       432 6.43435E-01 2.42172E-01 2.50000E-01
 -1       433 6.35167E-01 2.63095E-01 0.00000E+00
 -1       434 6.35167E-01 2.63095E-01 2.50000E-01
 -1       435 6.26219E-01 2.83736E-01 0.00000E+00
 -1       436 6.26219E-01 2.83736E-01 2.50000E-01
 -1       437 6.16600E-01 3.04073E-01 0.00000E+00
 -1       438 6.16600E-01 3.04073E-01 2.50000E-01
 -1       439 6.06321E-01 3.24085E-01 0.00000E+00
 -1       440 6.06321E-01 3.24085E-01 2.50000E-01
 -1       441 5.95393E-01 3.43750E-01 0.00000E+00
 -1       442 5.95393E-01 3.43750E-01 2.50000E-01
 -1       443 7.03125E-01 0.00000E+00 2.50000E-01
 -1       444 7.03125E-01 0.00000E+00 0.00000E+00
 -1       445 7.02749E-01 2.30056E-02 0.00000E+00
 -1       446 7.02749E-01 2.30056E-02 2.50000E-01
 -1       447 7.01620E-01 4.59866E-02 0.00000E+00
 -1       448 7.01620E-01 4.59866E-02 2.50000E-01
 -1       449 6.99739E-01 6.89183E-02 0.00000E+00
 -1       450 6.99739E-01 6.89183E-02 2.50000E-01
 -1       451 6.97110E-01 9.17762E-02 0.00000E+00
 -1       452 6.97110E-01 9.17762E-02 2.50000E-01
 -1       453 6.93734E-01 1.14536E-01 0.00000E+00
 -1       454 6.93734E-01 1.14536E-01 2.50000E-01
 -1       455 6.89615E-01 1.37173E-01 0.00000E+00
 -1       456 6.89615E-01 1.37173E-01 2.50000E-01
 -1       457 6.84757E-01 1.59663E-01 0.00000E+00
 -1       458 6.84757E-01 1.59663E-01 2.50000E-01
 -1       459 6.79167E-01 1.81982E-01 0.00000E+00
 -1       460 6.79167E-01 1.81982E-01 2.50000E-01
 -1       461 6.72849E-01 2.04106E-01 0.00000E+00
 -1       462 6.72849E-01 2.04106E-01 2.50000E-01
 -1       463 6.65810E-01 2.26012E-01 0.00000E+00
 -1       464 6.65810E-01 2.26012E-01 2.50000E-01
 -1       465 6.58059E-01 2.47676E-01 0.00000E+00
 -1       466 6.58059E-01 2.47676E-01 2.50000E-01
 -1       467 6.49603E-01 2.69074E-01 0.00000E+00
 -1       468 6.49603E-01 2.69074E-01 2.50000E-01
 -1       469 6.40451E-01 2.90185E-01 0.00000E+00
 -1       470 6.40451E-01 2.90185E-01 2.50000E-01
 -1       471 6.30614E-01 3.10984E-01 0.00000E+00
 -1       472 6.30614E-01 3.10984E-01 2.50000E-01
 -1       473 6.20101E-01 3.31451E-01 0.00000E+00
 -1       474 6.20101E-01 3.31451E-01 2.50000E-01
 -1       475 6.08924E-01 3.51562E-01 0.00000E+00
 -1       476 6.08924E-01 3.51562E-01 2.50000E-01
 -1       477 7.18750E-01 0.00000E+00 2.50000E-01
 -1       478 7.18750E-01 0.00000E+00 0.00000E+00
 -1       479 7.18365E-01 2.35168E-02 0.00000E+00
 -1       480 7.18365E-01 2.35168E-02 2.50000E-01
 -1       481 7.17211E-01 4.70085E-02 0.00000E+00
 -1       482 7.17211E-01 4.70085E-02 2.50000E-01
 -1       483 7.15289E-01 7.04498E-02 0.00000E+00
 -1       484 7.15289E-01 7.04498E-02 2.50000E-01
 -1       485 7.12601E-01 9.38157E-02 0.00000E+00
 -1       486 7.12601E-01 9.38157E-02 2.50000E-01
 -1       487 7.09150E-01 1.17081E-01 0.00000E+00
 -1       488 7.09150E-01 1.17081E-01 2.50000E-01
 -1       489 7.04940E-01 1.40221E-01 0.00000E+00
 -1       490 7.04940E-01 1.40221E-01 2.50000E-01
 -1       491 6.99974E-01 1.63211E-01 0.00000E+00
 -1       492 6.99974E-01 1.63211E-01 2.50000E-01
 -1       493 6.94259E-01 1.86026E-01 0.00000E+00
 -1       494 6.94259E-01 1.86026E-01 2.50000E-01
 -1       495 6.87801E-01 2.08642E-01 0.00000E+00
 -1       496 6.87801E-01 2.08642E-01 2.50000E-01
 -1       497 6.80606E-01 2.31035E-01 0.00000E+00
 -1       498 6.80606E-01 2.31035E-01 2.50000E-01
 -1       499 6.72683E-01 2.53180E-01 0.00000E+00
 -1       500 6.72683E-01 2.53180E-01 2.50000E-01
 -1       501 6.64039E-01 2.75054E-01 0.00000E+00
 -1       502 6.64039E-01 2.75054E-01 2.50000E-01
 -1       503 6.54684E-01 2.96633E-01 0.00000E+00
 -1       504 6.54684E-01 2.96633E-01 2.50000E-01
 -1       505 6.44628E-01 3.17895E-01 0.00000E+00
 -1       506 6.44628E-01 3.17895E-01 2.50000E-01
 -1       507 6.33881E-01 3.38816E-01 0.00000E+00
 -1       508 6.33881E-01 3.38816E-01 2.50000E-01
 -1       509 6.22456E-01 3.59375E-01 0.00000E+00
 -1       510 6.22456E-01 3.59375E-01 2.50000E-01
 -1       511 7.34375E-01 0.00000E+00 2.50000E-01
 -1       512 7.34375E-01 0.00000E+00 0.00000E+00
 -1       513 7.33982E-01 2.40281E-02 0.00000E+00
 -1       514 7.33982E-01 2.40281E-02 2.50000E-01
 -1       515 7.32803E-01 4.80304E-02 0.00000E+00
 -1       516 7.32803E-01 4.80304E-02 2.50000E-01
 -1       517 7.30839E-01 7.19813E-02 0.00000E+00
 -1       518 7.30839E-01 7.19813E-02 2.50000E-01
 -1       519 7.28092E-01 9.58552E-02 0.00000E+00
 -1       520 7.28092E-01 9.58552E-02 2.50000E-01
 -1       521 7.24566E-01 1.19626E-01 0.00000E+00
 -1       522 7.24566E-01 1.19626E-01 2.50000E-01
 -1       523 7.20264E-01 1.43269E-01 0.00000E+00
 -1       524 7.20264E-01 1.43269E-01 2.50000E-01
 -1       525 7.15191E-01 1.66759E-01 0.00000E+00
 -1       526 7.15191E-01 1.66759E-01 2.50000E-01
 -1       527 7.09352E-01 1.90070E-01 0.00000E+00
 -1       528 7.09352E-01 1.90070E-01 2.50000E-01
 -1       529 7.02753E-01 2.13178E-01 0.00000E+00
 -1       530 7.02753E-01 2.13178E-01 2.50000E-01
 -1       531 6.95402E-01 2.36057E-01 0.00000E+00
 -1       532 6.95402E-01 2.36057E-01 2.50000E-01
 -1       533 6.87306E-01 2.58684E-01 0.00000E+00
 -1       534 6.87306E-01 2.58684E-01 2.50000E-01
 -1       535 6.78475E-01 2.81033E-01 0.00000E+00
 -1       536 6.78475E-01 2.81033E-01 2.50000E-01
 -1       537 6.68916E-01 3.03082E-01 0.00000E+00
 -1       538 6.68916E-01 3.03082E-01 2.50000E-01
 -1       539 6.58642E-01 3.24806E-01 0.00000E+00
 -1       540 6.58642E-01 3.24806E-01 2.50000E-01
 -1       541 6.47662E-01 3.46182E-01 0.00000E+00
 -1       542 6.47662E-01 3.46182E-01 2.50000E-01
 -1       543 6.35988E-01 3.67188E-01 0.00000E+00
 -1       544 6.35988E-01 3.67188E-01 2.50000E-01
 -1       545 7.50000E-01 0.00000E+00 2.50000E-01
 -1       546 7.50000E-01 0.00000E+00 0.00000E+00
 -1       547 7.49599E-01 2.45393E-02 0.00000E+00
 -1       548 7.49599E-01 2.45393E-02 2.50000E-01
 -1       549 7.48394E-01 4.90523E-02 0.00000E+00
 -1       550 7.48394E-01 4.90523E-02 2.50000E-01
 -1       551 7.46389E-01 7.35128E-02 0.00000E+00
 -1       552 7.46389E-01 7.35128E-02 2.50000E-01
 -1       553 7.43584E-01 9.78946E-02 0.00000E+00
 -1       554 7.43584E-01 9.78946E-02 2.50000E-01
 -1       555 7.39983E-01 1.22172E-01 0.00000E+00
 -1       556 7.39983E-01 1.22172E-01 2.50000E-01
 -1       557 7.35589E-01 1.46318E-01 0.00000E+00
 -1       558 7.35589E-01 1.46318E-01 2.50000E-01
 -1       559 7.30408E-01 1.70307E-01 0.00000E+00
 -1       560 7.30408E-01 1.70307E-01 2.50000E-01
 -1       561 7.24445E-01 1.94114E-01 0.00000E+00
 -1       562 7.24445E-01 1.94114E-01 2.50000E-01
 -1       563 7.17706E-01 2.17713E-01 0.00000E+00
 -1       564 7.17706E-01 2.17713E-01 2.50000E-01
 -1       565 7.10198E-01 2.41080E-01 0.00000E+00
 -1       566 7.10198E-01 2.41080E-01 2.50000E-01
 -1       567 7.01930E-01 2.64188E-01 0.00000E+00
 -1       568 7.01930E-01 2.64188E-01 2.50000E-01
 -1       569 6.92910E-01 2.87013E-01 0.00000E+00
 -1       570 6.92910E-01 2.87013E-01 2.50000E-01
 -1       571 6.83149E-01 3.09530E-01 0.00000E+00
 -1       572 6.83149E-01 3.09530E-01 2.50000E-01
 -1       573 6.72655E-01 3.31717E-01 0.00000E+00
 -1       574 6.72655E-01 3.31717E-01 2.50000E-01
 -1       575 6.61442E-01 3.53548E-01 0.00000E+00
 -1       576 6.61442E-01 3.53548E-01 2.50000E-01
 -1       577 6.49520E-01 3.75000E-01 0.00000E+00
 -1       578 6.49520E-01 3.75000E-01 2.50000E-01
 -1       579 7.50000E-01 0.00000E+00 2.50000E-01
 -1       580 7.50000E-01 0.00000E+00 0.00000E+00
 -1       581 7.49599E-01 2.45393E-02 0.00000E+00
 -1       582 7.49599E-01 2.45393E-02 2.50000E-01