    1C
    1UUSER                                                              
    1UDATE              24.november.2019                                
    1UTIME              19:38:28                                        
    1UHOST                                                              
    1UPGM               CalculiX                                        
    1UVERSION           Version 2.16                             
    1UCOMPILETIME       So 24. Nov 18:30:58 CET 2019                    
    1UDIR                                                               
    1UDBN                                                               
    1UMAT    1EL                                                        
    2C                            41                                     1
 -1         1 0.00000E+00 0.00000E+00 0.00000E+00
 -1         2 1.00000E-01 0.00000E+00 0.00000E+00
 -1         3 5.00000E-02 0.00000E+00 0.00000E+00
 -1         4 2.00000E-01 0.00000E+00 0.00000E+00
 -1         5 1.50000E-01 0.00000E+00 0.00000E+00
 -1         6 3.00000E-01 0.00000E+00 0.00000E+00
 -1         7 2.50000E-01 0.00000E+00 0.00000E+00
 -1         8 4.00000E-01 0.00000E+00 0.00000E+00
 -1         9 3.50000E-01 0.00000E+00 0.00000E+00
 -1        10 5.00000E-01 0.00000E+00 0.00000E+00
 -1        11 4.50000E-01 0.00000E+00 0.00000E+00
 -1        12 6.00000E-01 0.00000E+00 0.00000E+00
 -1        13 5.50000E-01 0.00000E+00 0.00000E+00
 -1        14 7.00000E-01 0.00000E+00 0.00000E+00
 -1        15 6.50000E-01 0.00000E+00 0.00000E+00
 -1        16 8.00000E-01 0.00000E+00 0.00000E+00
 -1        17 7.50000E-01 0.00000E+00 0.00000E+00
 -1        18 9.00000E-01 0.00000E+00 0.00000E+00
 -1        19 8.50000E-01 0.00000E+00 0.00000E+00
 -1        20 1.00000E+00 0.00000E+00 0.00000E+00
 -1        21 9.50000E-01 0.00000E+00 0.00000E+00
 -1        22 1.10000E+00 0.00000E+00 0.00000E+00
 -1        23 1.05000E+00 0.00000E+00 0.00000E+00
 -1        24 1.20000E+00 0.00000E+00 0.00000E+00
 -1        25 1.15000E+00 0.00000E+00 0.00000E+00
 -1        26 1.30000E+00 0.00000E+00 0.00000E+00
 -1        27 1.25000E+00 0.00000E+00 0.00000E+00
 -1        28 1.40000E+00 0.00000E+00 0.00000E+00
 -1        29 1.35000E+00 0.00000E+00 0.00000E+00
 -1        30 1.50000E+00 0.00000E+00 0.00000E+00
 -1        31 1.45000E+00 0.00000E+00 0.00000E+00
 -1        32 1.60000E+00 0.00000E+00 0.00000E+00
 -1        33 1.55000E+00 0.00000E+00 0.00000E+00
 -1        34 1.70000E+00 0.00000E+00 0.00000E+00
 -1        35 1.65000E+00 0.00000E+00 0.00000E+00
 -1        36 1.80000E+00 0.00000E+00 0.00000E+00
 -1        37 1.75000E+00 0.00000E+00 0.00000E+00
 -1        38 1.90000E+00 0.00000E+00 0.00000E+00
 -1        39 1.85000E+00 0.00000E+00 0.00000E+00
 -1        40 2.00000E+00 0.00000E+00 0.00000E+00
 -1        41 1.95000E+00 0.00000E+00 0.00000E+00
 -3
    3C                            20                                     1
 -1         1   12    0    1
 -2         1         2         3
 -1         2   12    0    1
 -2         2         4         5
 -1         3   12    0    1
 -2         4         6         7
 -1         4   12    0    1
 -2         6         8         9
 -1         5   12    0    1
 -2         8        10        11
 -1         6   12    0    1
 -2        10        12        13
 -1         7   12    0    1
 -2        12        14        15
 -1         8   12    0    1
 -2        14        16        17
 -1         9   12    0    1
 -2        16        18        19
 -1        10   12    0    1
 -2        18        20        21
 -1        11   12    0    1
 -2        20        22        23
 -1        12   12    0    1
 -2        22        24        25
 -1        13   12    0    1
 -2        24        26        27
 -1        14   12    0    1
 -2        26        28        29
 -1        15   12    0    1
 -2        28        30        31
 -1        16   12    0    1
 -2        30        32        33
 -1        17   12    0    1
 -2        32        34        35
 -1        18   12    0    1
 -2        34        36        37
 -1        19   12    0    1
 -2        36        38        39
 -1        20   12    0    1
 -2        38        40        41
 -3
    1PSTEP                         1           1           1          
  100CL  101 1.000000000          41                     0    1           1
 -4  DISP        4    1
 -5  D1          1    2    1    0
 -5  D2          1    2    2    0
 -5  D3          1    2    3    0
 -5  ALL         1    2    0    0    1ALL
 -1         1 0.00000E+00 0.00000E+00 2.64698E-23
 -1         2-1.55009E-06 3.14814E-16 5.57387E-04
 -1         3-7.78932E-07 1.58014E-16 2.79393E-04
 -1         4-3.03896E-06 6.20571E-16 1.10361E-03
 -1         5-2.30593E-06 4.69393E-16 8.32594E-04
 -1         6-4.40910E-06 9.08704E-16 1.62752E-03
 -1         7-3.74226E-06 7.67369E-16 1.36906E-03
 -1         8-5.61051E-06 1.17123E-15 2.11795E-03
 -1         9-5.03369E-06 1.04352E-15 1.87762E-03
 -1        10-6.60437E-06 1.40210E-15 2.56373E-03
 -1        11-6.13534E-06 1.29102E-15 2.34711E-03
 -1        12-7.36682E-06 1.59672E-15 2.95371E-03
 -1        13-7.01542E-06 1.50423E-15 2.76639E-03
 -1        14-7.89267E-06 1.75101E-15 3.27672E-03
 -1        15-7.65892E-06 1.67901E-15 3.12429E-03
 -1        16-8.19917E-06 1.86287E-15 3.52164E-03
 -1        17-8.07140E-06 1.81230E-15 3.40964E-03
 -1        18-8.32971E-06 1.93185E-15 3.67717E-03
 -1        19-8.28273E-06 1.90275E-15 3.61126E-03
 -1        20-8.35766E-06 1.95673E-15 3.73266E-03
 -1        21-8.35079E-06 1.94986E-15 3.71814E-03
 -1        22-8.38561E-06 1.93707E-15 3.67717E-03
 -1        23-8.36453E-06 1.95242E-15 3.71814E-03
 -1        24-8.51615E-06 1.87319E-15 3.52164E-03
 -1        25-8.43258E-06 1.91066E-15 3.61126E-03
 -1        26-8.82265E-06 1.76560E-15 3.27672E-03
 -1        27-8.64391E-06 1.82491E-15 3.40964E-03
 -1        28-9.34850E-06 1.61470E-15 2.95371E-03
 -1        29-9.05640E-06 1.69527E-15 3.12429E-03
 -1        30-1.01109E-05 1.42289E-15 2.56373E-03
 -1        31-9.69990E-06 1.52388E-15 2.76639E-03
 -1        32-1.11048E-05 1.19275E-15 2.11795E-03
 -1        33-1.05800E-05 1.31230E-15 2.34711E-03
 -1        34-1.23062E-05 9.28734E-16 1.62752E-03
 -1        35-1.16816E-05 1.06481E-15 1.87762E-03
 -1        36-1.36764E-05 6.35993E-16 1.10361E-03
 -1        37-1.29731E-05 7.85336E-16 1.36906E-03
 -1        38-1.51652E-05 3.23643E-16 5.57387E-04
 -1        39-1.44094E-05 4.81853E-16 8.32594E-04
 -1        40-1.67153E-05 0.00000E+00 2.64698E-23
 -1        41-1.59364E-05 1.62505E-16 2.79393E-04
 -3
    1PSTEP                         2           1           1          
  100CL  101 1.000000000          41                     0    1           1
 -4  STRESS      6    1
 -5  SXX         1    4    1    1
 -5  SYY         1    4    2    2
 -5  SZZ         1    4    3    3
 -5  SXY         1    4    1    2
 -5  SYZ         1    4    2    3
 -5  SZX         1    4    3    1
 -1         1 3.23239E-15 7.72391E-03 2.87858E-05-1.00885E-16 2.29249E-05-2.34044E-17
 -1         2 2.91402E-15 7.73975E-03 2.94363E-05-9.82270E-17 4.97874E-04-1.56654E-16
 -1         3 3.07321E-15 7.73183E-03 2.91110E-05-9.95560E-17 2.60399E-04-9.00290E-17
 -1         4 2.92455E-15 7.75707E-03 3.14105E-05-1.04178E-16 9.99844E-04-3.10163E-16
 -1         5 2.91928E-15 7.74841E-03 3.04234E-05-1.01203E-16 7.48859E-04-2.33408E-16
 -1         6 2.24894E-15 7.75864E-03 3.47083E-05-7.82828E-17 1.49995E-03-4.57764E-16
 -1         7 2.58674E-15 7.75786E-03 3.30594E-05-9.12305E-17 1.24990E-03-3.83963E-16
 -1         8 1.91664E-15 7.75887E-03 3.93517E-05-5.17842E-17 1.99998E-03-5.86364E-16
 -1         9 2.08279E-15 7.75876E-03 3.70300E-05-6.50335E-17 1.74997E-03-5.22064E-16
 -1        10 1.55338E-15 7.75866E-03 4.53529E-05-2.08150E-17 2.49998E-03-6.63694E-16
 -1        11 1.73501E-15 7.75876E-03 4.23523E-05-3.62996E-17 2.24998E-03-6.25029E-16
 -1        12 1.37678E-15 7.75971E-03 5.27475E-05-3.20382E-17 2.99998E-03-6.38839E-16
 -1        13 1.46508E-15 7.75918E-03 4.90502E-05-2.64266E-17 2.74998E-03-6.51267E-16
 -1        14 1.07385E-15 7.75534E-03 6.14799E-05-2.14723E-17 3.49999E-03-7.61760E-16
 -1        15 1.22532E-15 7.75752E-03 5.71137E-05-2.67552E-17 3.24998E-03-7.00300E-16
 -1        16 5.90126E-16 7.77087E-03 7.18072E-05-3.10726E-17 4.00022E-03-7.54605E-16
 -1        17 8.31989E-16 7.76310E-03 6.66435E-05-2.62724E-17 3.75011E-03-7.58183E-16
 -1        18-2.52983E-16 7.68924E-03 8.36896E-05-4.62853E-17 4.50119E-03-7.49888E-16
 -1        19 1.68572E-16 7.73006E-03 7.77484E-05-3.86789E-17 4.25071E-03-7.52247E-16
 -1        20-3.18895E-16-5.98923E-15 8.50633E-05 8.59476E-18 4.97871E-03-7.88378E-16
 -1        21-2.85939E-16 3.84462E-03 8.43764E-05-1.88453E-17 4.73995E-03-7.69133E-16
 -1        22-4.34031E-16-7.68924E-03 8.36896E-05-3.04491E-17 4.50119E-03-8.59176E-16
 -1        23-3.76463E-16-3.84462E-03 8.43764E-05-1.09272E-17 4.73995E-03-8.23777E-16
 -1        24-3.69357E-17-7.77087E-03 7.18072E-05-6.20536E-18 4.00022E-03-8.76198E-16
 -1        25-2.35483E-16-7.73006E-03 7.77484E-05-1.83273E-17 4.25071E-03-8.67687E-16
 -1        26-1.75697E-16-7.75534E-03 6.14799E-05-2.39422E-17 3.49999E-03-7.92443E-16
 -1        27-1.06316E-16-7.76310E-03 6.66435E-05-1.50738E-17 3.75011E-03-8.34321E-16
 -1        28-1.33854E-15-7.75971E-03 5.27475E-05 2.83400E-17 2.99998E-03-7.48479E-16
 -1        29-7.57118E-16-7.75752E-03 5.71137E-05 2.19890E-18 3.24998E-03-7.70461E-16
 -1        30-2.41001E-15-7.75866E-03 4.53529E-05 1.00814E-17 2.49998E-03-6.85704E-16
 -1        31-1.87427E-15-7.75918E-03 4.90502E-05 1.92107E-17 2.74998E-03-7.17091E-16
 -1        32-2.34193E-15-7.75887E-03 3.93517E-05 5.33021E-17 1.99998E-03-5.77826E-16
 -1        33-2.37597E-15-7.75876E-03 4.23523E-05 3.16917E-17 2.24998E-03-6.31765E-16
 -1        34-2.61082E-15-7.75864E-03 3.47083E-05 1.04746E-16 1.49995E-03-5.20160E-16
 -1        35-2.47637E-15-7.75876E-03 3.70300E-05 7.90239E-17 1.74997E-03-5.48993E-16
 -1        36-3.24522E-15-7.75707E-03 3.14105E-05 1.52937E-16 9.99844E-04-4.27460E-16
 -1        37-2.92802E-15-7.75786E-03 3.30594E-05 1.28841E-16 1.24990E-03-4.73810E-16
 -1        38-3.85913E-15-7.73975E-03 2.94363E-05 1.77198E-16 4.97874E-04-2.33171E-16
 -1        39-3.55217E-15-7.74841E-03 3.04234E-05 1.65067E-16 7.48859E-04-3.30316E-16
 -1        40-3.07972E-15-7.72391E-03 2.87858E-05 1.57206E-16 2.29249E-05-6.78473E-18
 -1        41-3.46943E-15-7.73183E-03 2.91110E-05 1.67202E-16 2.60399E-04-1.19978E-16
 -3
 9999
