    1C
    1UUSER                                                              
    1UDATE              24.november.2019                                
    1UTIME              19:38:42                                        
    1UHOST                                                              
    1UPGM               CalculiX                                        
    1UVERSION           Version 2.16                             
    1UCOMPILETIME       So 24. Nov 18:30:58 CET 2019                    
    1UDIR                                                               
    1UDBN                                                               
    1UMAT    1EL                                                        
    2C                             8                                     1
 -1         1 1.00000E+02 0.00000E+00 1.00000E+02
 -1         2 0.00000E+00 0.00000E+00 1.00000E+02
 -1         3 0.00000E+00 1.00000E+02 1.00000E+02
 -1         4 1.00000E+02 1.00000E+02 1.00000E+02
 -1         5 1.00000E+02 0.00000E+00 0.00000E+00
 -1         6 1.00000E+02 1.00000E+02 0.00000E+00
 -1         7 0.00000E+00 1.00000E+02 0.00000E+00
 -1         8 0.00000E+00 0.00000E+00 0.00000E+00
 -3
    3C                             1                                     1
 -1         1    1    0    1
 -2         1         2         3         4         5         8         7         6
 -3
    1PSTEP                         1           1           2          
  100CL  102 0.00000E+00           8                     3    2           1
 -4  NORM        4    1
 -5  NORMX       1    2	 1    0
 -5  NORMY       1    2	 2    0
 -5  NORMZ       1    2	 3    0
 -5  ALL         1    2	 0    0    1ALL
 -1         1 5.77350E-01-5.77350E-01 5.77350E-01
 -1         2 0.00000E+00 0.00000E+00 0.00000E+00
 -1         3 0.00000E+00 0.00000E+00 0.00000E+00
 -1         4 1.00000E+00 0.00000E+00 0.00000E+00
 -1         5 1.00000E+00 0.00000E+00 0.00000E+00
 -1         6 1.00000E+00 0.00000E+00 0.00000E+00
 -1         7 0.00000E+00 0.00000E+00 0.00000E+00
 -1         8 0.00000E+00 0.00000E+00 0.00000E+00
 -3
    1PSTEP                         2           1           2          
  100CL  103 0.00000E+00           8                     3    3           1
 -4  SENENER     2    1
 -5  DFDN        1    1    1    0
 -5  DFDNFIL     1    1    2    0
 -1         1 2.25361E+00 1.00000E+00
 -1         2 0.00000E+00 0.00000E+00
 -1         3 0.00000E+00 0.00000E+00
 -1         4 0.00000E+00 0.00000E+00
 -1         5 0.00000E+00 0.00000E+00
 -1         6 0.00000E+00 0.00000E+00
 -1         7 0.00000E+00 0.00000E+00
 -1         8 0.00000E+00 0.00000E+00
 -3
 9999
