    1C
    1UUSER                                                              
    1UDATE              24.november.2019                                
    1UTIME              19:38:41                                        
    1UHOST                                                              
    1UPGM               CalculiX                                        
    1UVERSION           Version 2.16                             
    1UCOMPILETIME       So 24. Nov 18:30:58 CET 2019                    
    1UDIR                                                               
    1UDBN                                                               
    1UMAT    1EL                                                        
    2C                             8                                     1
 -1         1 1.00000E+02 0.00000E+00 1.00000E+02
 -1         2 0.00000E+00 0.00000E+00 1.00000E+02
 -1         3 0.00000E+00 1.00000E+02 1.00000E+02
 -1         4 1.00000E+02 1.00000E+02 1.00000E+02
 -1         5 1.00000E+02 0.00000E+00 0.00000E+00
 -1         6 1.00000E+02 1.00000E+02 0.00000E+00
 -1         7 0.00000E+00 1.00000E+02 0.00000E+00
 -1         8 0.00000E+00 0.00000E+00 0.00000E+00
 -3
    3C                             1                                     1
 -1         1    1    0    1
 -2         1         2         3         4         5         8         7         6
 -3
    1PSTEP                         1           1           1          
  100CL  101 1.000000000           8                     0    1           1
 -4  DISP        4    1
 -5  D1          1    2    1    0
 -5  D2          1    2    2    0
 -5  D3          1    2    3    0
 -5  ALL         1    2    0    0    1ALL
 -1         1 0.00000E+00-3.71429E+00 0.00000E+00
 -1         2 0.00000E+00 0.00000E+00 0.00000E+00
 -1         3 0.00000E+00 0.00000E+00 0.00000E+00
 -1         4 0.00000E+00-3.71429E+00 0.00000E+00
 -1         5 0.00000E+00-3.71429E+00 0.00000E+00
 -1         6 0.00000E+00-3.71429E+00 0.00000E+00
 -1         7 0.00000E+00 0.00000E+00 0.00000E+00
 -1         8 0.00000E+00 0.00000E+00 0.00000E+00
 -3
    1PSTEP                         2           1           1          
  100CL  101 1.000000000           8                     0    1           1
 -4  STRESS      6    1
 -5  SXX         1    4    1    1
 -5  SYY         1    4    2    2
 -5  SZZ         1    4    3    3
 -5  SXY         1    4    1    2
 -5  SYZ         1    4    2    3
 -5  SZX         1    4    3    1
 -1         1 0.00000E+00 1.42457E-12 0.00000E+00-3.89984E+03-1.05381E-12 0.00000E+00
 -1         2 0.00000E+00 5.70390E-13 0.00000E+00-3.89984E+03-2.30293E-13 0.00000E+00
 -1         3 0.00000E+00 5.70390E-13 0.00000E+00-3.89984E+03-1.07353E-13 0.00000E+00
 -1         4 0.00000E+00 1.42457E-12 0.00000E+00-3.89984E+03 9.13337E-13 0.00000E+00
 -1         5 0.00000E+00-2.97191E-13 0.00000E+00-3.89984E+03-1.05381E-12 0.00000E+00
 -1         6 0.00000E+00-2.97191E-13 0.00000E+00-3.89984E+03 9.13337E-13 0.00000E+00
 -1         7 0.00000E+00-4.68334E-13 0.00000E+00-3.89984E+03-1.07353E-13 0.00000E+00
 -1         8 0.00000E+00-4.68334E-13 0.00000E+00-3.89984E+03-2.30293E-13 0.00000E+00
 -3
    1PSTEP                         3           1           1          
  100CL  101 1.000000000           8                     0    1           1
 -4  ERROR       1    1
 -5  STR(%)      1    1    0    0
 -1         1 3.71342E-15
 -1         2 3.71342E-15
 -1         3 3.71342E-15
 -1         4 3.71342E-15
 -1         5 3.71342E-15
 -1         6 3.71342E-15
 -1         7 3.71342E-15
 -1         8 3.71342E-15
 -3
    1PSTEP                         1           1           2          
  100CL  102 0.00000E+00           8                     3    2           1
 -4  NORM        4    1
 -5  NORMX       1    2	 1    0
 -5  NORMY       1    2	 2    0
 -5  NORMZ       1    2	 3    0
 -5  ALL         1    2	 0    0    1ALL
 -1         1 0.00000E+00-1.00000E+00 0.00000E+00
 -1         2 0.00000E+00 0.00000E+00 0.00000E+00
 -1         3 0.00000E+00 0.00000E+00 0.00000E+00
 -1         4 0.00000E+00 1.00000E+00 0.00000E+00
 -1         5 0.00000E+00-1.00000E+00 0.00000E+00
 -1         6 0.00000E+00 1.00000E+00 0.00000E+00
 -1         7 0.00000E+00 0.00000E+00 0.00000E+00
 -1         8 0.00000E+00 0.00000E+00 0.00000E+00
 -3
    1PSTEP                         2           1           2          
  100CL  103 0.00000E+00           8                     3    3           1
 -4  SENENER     2    1
 -5  DFDN        1    1    1    0
 -5  DFDNFIL     1    1    2    0
 -1         1 1.60952E+01 1.00000E+00
 -1         2 0.00000E+00 0.00000E+00
 -1         3 0.00000E+00 0.00000E+00
 -1         4 1.60952E+01 1.00000E+00
 -1         5 1.60952E+01 1.00000E+00
 -1         6 1.60952E+01 1.00000E+00
 -1         7 0.00000E+00 0.00000E+00
 -1         8 0.00000E+00 0.00000E+00
 -3
 9999
