    1C
    1UUSER                                                              
    1UDATE              24.november.2019                                
    1UTIME              19:38:43                                        
    1UHOST                                                              
    1UPGM               CalculiX                                        
    1UVERSION           Version 2.16                             
    1UCOMPILETIME       So 24. Nov 18:30:58 CET 2019                    
    1UDIR                                                               
    1UDBN                                                               
    1UMAT    1ALUM                                                      
    2C                            21                                     1
 -1         1 0.00000E+00 0.00000E+00 0.00000E+00
 -1         2 0.00000E+00 0.00000E+00 5.00000E-01
 -1         3 0.00000E+00 0.00000E+00 1.00000E+00
 -1         4 0.00000E+00 0.00000E+00 1.50000E+00
 -1         5 0.00000E+00 0.00000E+00 2.00000E+00
 -1         6 0.00000E+00 0.00000E+00 2.50000E+00
 -1         7 0.00000E+00 0.00000E+00 3.00000E+00
 -1         8 0.00000E+00 0.00000E+00 3.50000E+00
 -1         9 0.00000E+00 0.00000E+00 4.00000E+00
 -1        10 0.00000E+00 0.00000E+00 4.50000E+00
 -1        11 0.00000E+00 0.00000E+00 5.00000E+00
 -1        12 0.00000E+00 0.00000E+00 5.50000E+00
 -1        13 0.00000E+00 0.00000E+00 6.00000E+00
 -1        14 0.00000E+00 0.00000E+00 6.50000E+00
 -1        15 0.00000E+00 0.00000E+00 7.00000E+00
 -1        16 0.00000E+00 0.00000E+00 7.50000E+00
 -1        17 0.00000E+00 0.00000E+00 8.00000E+00
 -1        18 0.00000E+00 0.00000E+00 8.50000E+00
 -1        19 0.00000E+00 0.00000E+00 9.00000E+00
 -1        20 0.00000E+00 0.00000E+00 9.50000E+00
 -1        21 0.00000E+00 0.00000E+00 1.00000E+01
 -3
    3C                            10                                     1
 -1         1   12    0    1
 -2         1         3         2
 -1         2   12    0    1
 -2         3         5         4
 -1         3   12    0    1
 -2         5         7         6
 -1         4   12    0    1
 -2         7         9         8
 -1         5   12    0    1
 -2         9        11        10
 -1         6   12    0    1
 -2        11        13        12
 -1         7   12    0    1
 -2        13        15        14
 -1         8   12    0    1
 -2        15        17        16
 -1         9   12    0    1
 -2        17        19        18
 -1        10   12    0    1
 -2        19        21        20
 -3
    1PSTEP                         1           1           1          
  100CL  101 1.000000000          21                     0    1           1
 -4  DISP        4    1
 -5  D1          1    2    1    0
 -5  D2          1    2    2    0
 -5  D3          1    2    3    0
 -5  ALL         1    2    0    0    1ALL
 -1         1 9.04305E-01-3.09913E-10-2.58795E-14
 -1         2 8.36284E-01-2.87481E-10-2.59263E-14
 -1         3 7.68606E-01-2.65096E-10-2.55213E-14
 -1         4 7.01615E-01-2.42821E-10-2.47784E-14
 -1         5 6.35653E-01-2.20793E-10-2.42428E-14
 -1         6 5.71062E-01-1.99152E-10-2.25436E-14
 -1         7 5.08185E-01-1.77996E-10-2.14056E-14
 -1         8 4.47367E-01-1.57418E-10-2.01328E-14
 -1         9 3.88949E-01-1.37529E-10-1.88599E-14
 -1        10 3.33274E-01-1.18437E-10-1.71438E-14
 -1        11 2.80686E-01-1.00259E-10-1.57205E-14
 -1        12 2.31528E-01-8.31078E-11-1.41727E-14
 -1        13 1.86140E-01-6.71237E-11-1.27383E-14
 -1        14 1.44866E-01-5.24616E-11-1.12254E-14
 -1        15 1.08056E-01-3.92843E-11-9.69103E-15
 -1        16 7.60550E-02-2.77507E-11-8.07514E-15
 -1        17 4.91742E-02-1.80029E-11-6.41642E-15
 -1        18 2.77485E-02-1.01911E-11-4.82687E-15
 -1        19 1.22427E-02-4.51046E-12-3.21553E-15
 -1        20 3.03121E-03-1.12067E-12-1.60868E-15
 -1        21 0.00000E+00 3.38813E-21 2.46519E-32
 -3
    1PSTEP                         2           1           1          
  100CL  101 1.000000000          21                     0    1           1
 -4  STRESS      6    1
 -5  SXX         1    4    1    1
 -5  SYY         1    4    2    2
 -5  SZZ         1    4    3    3
 -5  SXY         1    4    1    2
 -5  SYZ         1    4    2    3
 -5  SZX         1    4    3    1
 -1         1-9.99960E-01 1.02781E-10-7.54172E-11-5.25493E-11-4.31264E-12 2.11347E-04
 -1         2-9.99960E-01 1.98222E-10-2.43784E-11-5.07127E-11 7.11767E-11 5.00138E-01
 -1         3-9.99960E-01 2.93663E-10 2.66605E-11-4.88761E-11 1.46666E-10 1.00006E+00
 -1         4-9.99960E-01 3.27477E-10 1.04765E-10-9.82985E-12 3.58375E-10 1.50002E+00
 -1         5-9.99960E-01 3.61291E-10 1.82869E-10 2.92164E-11 5.70083E-10 1.99997E+00
 -1         6-9.99960E-01 3.33189E-10 1.90527E-10 1.26235E-11 7.06942E-10 2.49997E+00
 -1         7-9.99960E-01 3.05087E-10 1.98185E-10-3.96934E-12 8.43800E-10 2.99998E+00
 -1         8-9.99960E-01 3.18513E-10 2.05437E-10-3.59393E-11 1.00229E-09 3.49999E+00
 -1         9-9.99960E-01 3.31939E-10 2.12689E-10-6.79092E-11 1.16077E-09 3.99999E+00
 -1        10-9.99960E-01 3.39700E-10 2.16835E-10-7.58716E-11 1.32633E-09 4.49995E+00
 -1        11-9.99960E-01 3.47462E-10 2.20980E-10-8.38339E-11 1.49188E-09 4.99992E+00
 -1        12-9.99960E-01 4.09856E-10 2.13934E-10-8.26014E-11 1.70907E-09 5.50001E+00
 -1        13-9.99960E-01 4.72251E-10 2.06889E-10-8.13689E-11 1.92625E-09 6.00010E+00
 -1        14-9.99960E-01 4.63656E-10 2.20282E-10-8.41288E-11 2.15903E-09 6.49987E+00
 -1        15-9.99960E-01 4.55062E-10 2.33675E-10-8.68887E-11 2.39181E-09 6.99964E+00
 -1        16-9.99960E-01 4.49687E-10 2.19508E-10-9.00463E-11 2.61631E-09 7.50001E+00
 -1        17-9.99960E-01 4.44313E-10 2.05340E-10-9.32040E-11 2.84082E-09 8.00039E+00
 -1        18-9.99960E-01 4.36740E-10 2.07870E-10-9.79905E-11 3.05794E-09 8.50078E+00
 -1        19-9.99960E-01 4.29167E-10 2.10401E-10-1.02777E-10 3.27506E-09 9.00118E+00
 -1        20-9.99960E-01 4.30215E-10 2.12041E-10-1.03085E-10 3.49004E-09 9.50081E+00
 -1        21-9.99960E-01 4.31262E-10 2.13682E-10-1.03392E-10 3.70501E-09 1.00004E+01
 -3
    1PSTEP                         3           1           1          
  100CL  101 1.000000000          21                     0    1           1
 -4  ERROR       1    1
 -5  STR(%)      1    1    0    0
 -1         1 5.73361E+01
 -1         2 6.08273E+01
 -1         3 6.43185E+01
 -1         4 6.44132E+01
 -1         5 6.45079E+01
 -1         6 6.45324E+01
 -1         7 6.45568E+01
 -1         8 6.45641E+01
 -1         9 6.45715E+01
 -1        10 6.45755E+01
 -1        11 6.45795E+01
 -1        12 6.45804E+01
 -1        13 6.45814E+01
 -1        14 6.45843E+01
 -1        15 6.45872E+01
 -1        16 6.45872E+01
 -1        17 6.45872E+01
 -1        18 6.45935E+01
 -1        19 6.45998E+01
 -1        20 6.45998E+01
 -1        21 6.45998E+01
 -3
 9999
