    1C
    1UUSER                                                              
    1UDATE              24.november.2019                                
    1UTIME              19:38:47                                        
    1UHOST                                                              
    1UPGM               CalculiX                                        
    1UVERSION           Version 2.16                             
    1UCOMPILETIME       So 24. Nov 18:30:58 CET 2019                    
    1UDIR                                                               
    1UDBN                                                               
    1UMAT    1EL                                                        
    2C                            40                                     1
 -1        38 1.00000E+00 0.00000E+00 3.00000E+00
 -1        39 1.00000E+00 0.00000E+00 3.50000E+00
 -1        40 1.00000E+00 0.00000E+00 4.00000E+00
 -1       113 5.00000E-01 0.00000E+00 3.00000E+00
 -1       114 7.50000E-01 0.00000E+00 3.00000E+00
 -1       115 5.00000E-01 0.00000E+00 3.50000E+00
 -1       117 5.00000E-01 0.00000E+00 4.00000E+00
 -1       118 7.50000E-01 0.00000E+00 4.00000E+00
 -1       141 1.00000E+00 2.50000E-01 3.00000E+00
 -1       142 1.00000E+00 5.00000E-01 3.00000E+00
 -1       144 1.00000E+00 5.00000E-01 3.50000E+00
 -1       145 1.00000E+00 2.50000E-01 4.00000E+00
 -1       146 1.00000E+00 5.00000E-01 4.00000E+00
 -1       232 5.00000E-01 2.50000E-01 3.00000E+00
 -1       234 5.00000E-01 5.00000E-01 3.00000E+00
 -1       235 7.50000E-01 5.00000E-01 3.00000E+00
 -1       237 5.00000E-01 5.00000E-01 3.50000E+00
 -1       238 5.00000E-01 2.50000E-01 4.00000E+00
 -1       240 5.00000E-01 5.00000E-01 4.00000E+00
 -1       241 7.50000E-01 5.00000E-01 4.00000E+00
 -1       259 1.00000E+00 0.00000E+00 4.00000E+00
 -1       260 1.00000E+00 0.00000E+00 4.50000E+00
 -1       261 1.00000E+00 0.00000E+00 5.00000E+00
 -1       297 5.00000E-01 0.00000E+00 4.00000E+00
 -1       298 7.50000E-01 0.00000E+00 4.00000E+00
 -1       299 5.00000E-01 0.00000E+00 4.50000E+00
 -1       301 5.00000E-01 0.00000E+00 5.00000E+00
 -1       302 7.50000E-01 0.00000E+00 5.00000E+00
 -1       312 1.00000E+00 2.50000E-01 4.00000E+00
 -1       313 1.00000E+00 5.00000E-01 4.00000E+00
 -1       315 1.00000E+00 5.00000E-01 4.50000E+00
 -1       316 1.00000E+00 2.50000E-01 5.00000E+00
 -1       317 1.00000E+00 5.00000E-01 5.00000E+00
 -1       360 5.00000E-01 2.50000E-01 4.00000E+00
 -1       362 5.00000E-01 5.00000E-01 4.00000E+00
 -1       363 7.50000E-01 5.00000E-01 4.00000E+00
 -1       365 5.00000E-01 5.00000E-01 4.50000E+00
 -1       366 5.00000E-01 2.50000E-01 5.00000E+00
 -1       368 5.00000E-01 5.00000E-01 5.00000E+00
 -1       369 7.50000E-01 5.00000E-01 5.00000E+00
 -3
    3C                             2                                     1
 -1        14    4    0    1
 -2       113        38       142       234       117        40       146       240       114       141
 -2       235       232       115        39       144       237       118       145       241       238
 -1        18    4    0    1
 -2       297       259       313       362       301       261       317       368       298       312
 -2       363       360       299       260       315       365       302       316       369       366
 -3
    1PSTEP                         1           1           1          
  100CL  101 5.00000E-01          40                     0    1           1
 -4  DISP        4    1
 -5  D1          1    2    1    0
 -5  D2          1    2    2    0
 -5  D3          1    2    3    0
 -5  ALL         1    2    0    0    1ALL
 -1        38 3.83009E-04-3.83009E-04-7.42215E-04
 -1        39 3.48423E-04-3.48423E-04-9.23890E-04
 -1        40 4.89985E-04-4.89985E-04-1.16493E-03
 -1       113-8.17036E-17-3.90748E-04-7.48585E-04
 -1       114 1.89778E-04-3.87221E-04-7.50925E-04
 -1       115-9.10664E-17-3.37940E-04-8.94135E-04
 -1       117-9.60558E-17-4.93293E-04-1.08651E-03
 -1       118 2.44859E-04-4.91671E-04-1.10150E-03
 -1       141 3.87221E-04-1.89778E-04-7.50925E-04
 -1       142 3.90748E-04-5.45259E-17-7.48585E-04
 -1       144 3.37940E-04-6.24626E-17-8.94135E-04
 -1       145 4.91671E-04-2.44859E-04-1.10150E-03
 -1       146 4.93293E-04-6.59332E-17-1.08651E-03
 -1       232-8.02408E-17-1.94134E-04-7.59405E-04
 -1       234-7.92036E-17-5.26524E-17-7.56860E-04
 -1       235 1.94134E-04-5.34137E-17-7.59405E-04
 -1       237-8.98244E-17-6.14521E-17-8.66005E-04
 -1       238-9.48377E-17-2.46580E-04-1.01814E-03
 -1       240-9.46536E-17-6.53574E-17-1.00138E-03
 -1       241 2.46580E-04-6.52368E-17-1.01814E-03
 -1       259 4.89985E-04-4.89985E-04-1.16493E-03
 -1       260 6.37460E-04-6.37460E-04-9.53645E-04
 -1       261 5.93130E-04-5.93130E-04-8.03100E-04
 -1       297-9.60558E-17-4.93293E-04-1.08651E-03
 -1       298 2.44859E-04-4.91671E-04-1.10150E-03
 -1       299-9.22564E-17-6.44730E-04-9.24135E-04
 -1       301-8.26526E-17-5.96600E-04-8.06170E-04
 -1       302 2.98670E-04-5.94365E-04-8.10705E-04
 -1       312 4.91671E-04-2.44859E-04-1.10150E-03
 -1       313 4.93293E-04-6.59332E-17-1.08651E-03
 -1       315 6.44730E-04-6.33126E-17-9.24135E-04
 -1       316 5.94365E-04-2.98670E-04-8.10705E-04
 -1       317 5.96600E-04-5.66554E-17-8.06170E-04
 -1       360-9.48377E-17-2.46580E-04-1.01814E-03
 -1       362-9.46536E-17-6.53574E-17-1.00138E-03
 -1       363 2.46580E-04-6.52368E-17-1.01814E-03
 -1       365-9.26921E-17-6.29674E-17-8.95270E-04
 -1       366-8.36161E-17-2.99683E-04-8.18135E-04
 -1       368-8.32811E-17-5.85029E-17-8.15980E-04
 -1       369 2.99683E-04-5.76244E-17-8.18135E-04
 -3
    1PSTEP                         2           1           1          
  100CL  101 5.00000E-01          40                     0    1           1
 -4  NDTEMP      1    1
 -5  T           1    1    0    0
 -1        38 3.50000E+02
 -1        39 3.50000E+02
 -1        40 3.50000E+02
 -1       113 3.50000E+02
 -1       114 3.50000E+02
 -1       115 3.50000E+02
 -1       117 3.50000E+02
 -1       118 3.50000E+02
 -1       141 3.50000E+02
 -1       142 3.50000E+02
 -1       144 3.50000E+02
 -1       145 3.50000E+02
 -1       146 3.50000E+02
 -1       232 3.50000E+02
 -1       234 3.50000E+02
 -1       235 3.50000E+02
 -1       237 3.50000E+02
 -1       238 3.50000E+02
 -1       240 3.50000E+02
 -1       241 3.50000E+02
 -1       259 4.00000E+02
 -1       260 4.00000E+02
 -1       261 4.00000E+02
 -1       297 4.00000E+02
 -1       298 4.00000E+02
 -1       299 4.00000E+02
 -1       301 4.00000E+02
 -1       302 4.00000E+02
 -1       312 4.00000E+02
 -1       313 4.00000E+02
 -1       315 4.00000E+02
 -1       316 4.00000E+02
 -1       317 4.00000E+02
 -1       360 4.00000E+02
 -1       362 4.00000E+02
 -1       363 4.00000E+02
 -1       365 4.00000E+02
 -1       366 4.00000E+02
 -1       368 4.00000E+02
 -1       369 4.00000E+02
 -3
    1PSTEP                         3           1           1          
  100CL  101 5.00000E-01          40                     0    1           1
 -4  STRESS      6    1
 -5  SXX         1    4    1    1
 -5  SYY         1    4    2    2
 -5  SZZ         1    4    3    3
 -5  SXY         1    4    1    2
 -5  SYZ         1    4    2    3
 -5  SZX         1    4    3    1
 -1        38 1.56770E+01 1.56770E+01-1.59059E+02 2.93584E+00 1.51709E+01-1.51709E+01
 -1        39-2.92364E+01-2.92364E+01-2.10835E+02-3.14663E+00 2.21185E+00-2.21185E+00
 -1        40 6.82799E+01 6.82799E+01-1.77161E+02 1.09064E+00-8.70826E+00 8.70826E+00
 -1       113 1.64865E+01 2.28342E+01-1.44181E+02 1.02827E+00 1.96364E+01-2.53619E+00
 -1       114 1.97685E+01 2.30532E+01-1.43167E+02 2.06058E+00 1.72437E+01-8.72689E+00
 -1       115-2.59855E+01-2.73265E+01-1.91556E+02-1.81457E+00 2.44198E+00 1.23097E+00
 -1       117 8.16827E+01 8.30316E+01-1.45759E+02 5.12578E-01-1.14154E+01 2.97716E+00
 -1       118 7.85846E+01 7.92718E+01-1.53097E+02 8.12008E-01-9.78353E+00 5.97326E+00
 -1       141 2.30532E+01 1.97685E+01-1.43167E+02 2.06058E+00 8.72689E+00-1.72437E+01
 -1       142 2.28342E+01 1.64865E+01-1.44181E+02 1.02827E+00 2.53619E+00-1.96364E+01
 -1       144-2.73265E+01-2.59855E+01-1.91556E+02-1.81457E+00-1.23097E+00-2.44198E+00
 -1       145 7.92718E+01 7.85846E+01-1.53097E+02 8.12008E-01-5.97326E+00 9.78353E+00
 -1       146 8.30316E+01 8.16827E+01-1.45759E+02 5.12578E-01-2.97716E+00 1.14154E+01
 -1       232 2.53098E+01 2.83724E+01-1.27630E+02 5.92765E-01 1.12141E+01-2.56949E+00
 -1       234 2.58748E+01 2.58748E+01-1.29532E+02-2.10147E-05 2.97584E+00-2.97584E+00
 -1       235 2.83724E+01 2.53098E+01-1.27630E+02 5.92765E-01 2.56949E+00-1.12141E+01
 -1       237-2.12428E+01-2.12428E+01-1.68771E+02-7.05036E-05-1.62951E+00 1.62951E+00
 -1       238 9.47071E+01 9.53680E+01-1.17316E+02 2.66982E-01-7.26371E+00 2.69230E+00
 -1       240 9.98384E+01 9.98384E+01-1.07145E+02-1.10576E-04-2.91693E+00 2.91693E+00
 -1       241 9.53680E+01 9.47071E+01-1.17316E+02 2.66982E-01-2.69230E+00 7.26371E+00
 -1       259-7.01576E+01-7.01576E+01-1.50322E+02 1.08689E+00-1.09515E+01 1.09515E+01
 -1       260 3.05602E+01 3.05602E+01-1.15383E+02 2.04593E+00 2.30363E+00-2.30363E+00
 -1       261-2.35480E+01-2.35480E+01-1.73225E+02 4.63974E-01 1.81756E+01-1.81756E+01
 -1       297-8.38891E+01-8.25434E+01-1.82061E+02 5.12157E-01-1.01085E+01 2.97310E+00
 -1       298-8.06903E+01-8.00044E+01-1.74744E+02 8.10206E-01-1.02303E+01 7.13984E+00
 -1       299 2.72336E+01 2.74584E+01-1.34361E+02 1.32619E+00 2.37763E+00 1.09511E+00
 -1       301-1.84140E+01-2.17899E+01-1.81369E+02 8.82684E-01 1.76850E+01-3.42009E+00
 -1       302-2.47686E+01-2.66177E+01-1.85963E+02 5.56906E-01 1.78117E+01-1.06159E+01
 -1       312-8.00044E+01-8.06903E+01-1.74744E+02 8.10206E-01-7.13984E+00 1.02303E+01
 -1       313-8.25434E+01-8.38891E+01-1.82061E+02 5.12157E-01-2.97310E+00 1.01085E+01
 -1       315 2.74584E+01 2.72336E+01-1.34361E+02 1.32619E+00-1.09511E+00-2.37763E+00
 -1       316-2.66177E+01-2.47686E+01-1.85963E+02 5.56906E-01 1.06159E+01-1.78117E+01
 -1       317-2.17899E+01-1.84140E+01-1.81369E+02 8.82684E-01 3.42009E+00-1.76850E+01
 -1       360-9.48007E+01-9.41411E+01-2.09318E+02 2.66859E-01-6.62347E+00 2.68705E+00
 -1       362-9.77808E+01-9.77808E+01-2.18027E+02-1.50949E-04-2.91102E+00 2.91102E+00
 -1       363-9.41411E+01-9.48007E+01-2.09318E+02 2.66859E-01-2.68705E+00 6.62347E+00
 -1       365 2.03901E+01 2.03901E+01-1.58386E+02 1.23030E-06-1.38910E+00 1.38910E+00
 -1       366-2.47889E+01-2.63157E+01-1.97767E+02 3.24844E-01 1.02096E+01-3.03634E+00
 -1       368-2.26445E+01-2.26445E+01-1.95389E+02-6.51126E-05 2.97183E+00-2.97183E+00
 -1       369-2.63157E+01-2.47889E+01-1.97767E+02 3.24844E-01 3.03634E+00-1.02096E+01
 -3
    1PSTEP                         4           2           1          
  100CL  102 1.000000000          40                     0    2           1
 -4  DISP        4    1
 -5  D1          1    2    1    0
 -5  D2          1    2    2    0
 -5  D3          1    2    3    0
 -5  ALL         1    2    0    0    1ALL
 -1        38 7.66018E-04-7.66018E-04-1.48443E-03
 -1        39 6.96847E-04-6.96847E-04-1.84778E-03
 -1        40 9.79969E-04-9.79969E-04-2.32987E-03
 -1       113-1.63407E-16-7.81496E-04-1.49717E-03
 -1       114 3.79556E-04-7.74442E-04-1.50185E-03
 -1       115-1.82133E-16-6.75881E-04-1.78827E-03
 -1       117-1.92112E-16-9.86586E-04-2.17301E-03
 -1       118 4.89719E-04-9.83341E-04-2.20300E-03
 -1       141 7.74442E-04-3.79556E-04-1.50185E-03
 -1       142 7.81496E-04-1.09052E-16-1.49717E-03
 -1       144 6.75881E-04-1.24925E-16-1.78827E-03
 -1       145 9.83341E-04-4.89719E-04-2.20300E-03
 -1       146 9.86586E-04-1.31866E-16-2.17301E-03
 -1       232-1.60482E-16-3.88269E-04-1.51881E-03
 -1       234-1.58407E-16-1.05305E-16-1.51372E-03
 -1       235 3.88269E-04-1.06827E-16-1.51881E-03
 -1       237-1.79649E-16-1.22904E-16-1.73201E-03
 -1       238-1.89675E-16-4.93161E-04-2.03628E-03
 -1       240-1.89307E-16-1.30715E-16-2.00275E-03
 -1       241 4.93161E-04-1.30474E-16-2.03628E-03
 -1       259 9.79969E-04-9.79969E-04-2.32987E-03
 -1       260 1.27492E-03-1.27492E-03-1.90729E-03
 -1       261 1.18626E-03-1.18626E-03-1.60620E-03
 -1       297-1.92112E-16-9.86586E-04-2.17301E-03
 -1       298 4.89719E-04-9.83341E-04-2.20300E-03
 -1       299-1.84513E-16-1.28946E-03-1.84827E-03
 -1       301-1.65305E-16-1.19320E-03-1.61234E-03
 -1       302 5.97339E-04-1.18873E-03-1.62141E-03
 -1       312 9.83341E-04-4.89719E-04-2.20300E-03
 -1       313 9.86586E-04-1.31866E-16-2.17301E-03
 -1       315 1.28946E-03-1.26625E-16-1.84827E-03
 -1       316 1.18873E-03-5.97339E-04-1.62141E-03
 -1       317 1.19320E-03-1.13311E-16-1.61234E-03
 -1       360-1.89675E-16-4.93161E-04-2.03628E-03
 -1       362-1.89307E-16-1.30715E-16-2.00275E-03
 -1       363 4.93161E-04-1.30474E-16-2.03628E-03
 -1       365-1.85384E-16-1.25935E-16-1.79054E-03
 -1       366-1.67232E-16-5.99366E-04-1.63627E-03
 -1       368-1.66562E-16-1.17006E-16-1.63196E-03
 -1       369 5.99366E-04-1.15249E-16-1.63627E-03
 -3
    1PSTEP                         5           2           1          
  100CL  102 1.000000000          40                     0    2           1
 -4  NDTEMP      1    1
 -5  T           1    1    0    0
 -1        38 4.00000E+02
 -1        39 4.00000E+02
 -1        40 4.00000E+02
 -1       113 4.00000E+02
 -1       114 4.00000E+02
 -1       115 4.00000E+02
 -1       117 4.00000E+02
 -1       118 4.00000E+02
 -1       141 4.00000E+02
 -1       142 4.00000E+02
 -1       144 4.00000E+02
 -1       145 4.00000E+02
 -1       146 4.00000E+02
 -1       232 4.00000E+02
 -1       234 4.00000E+02
 -1       235 4.00000E+02
 -1       237 4.00000E+02
 -1       238 4.00000E+02
 -1       240 4.00000E+02
 -1       241 4.00000E+02
 -1       259 5.00000E+02
 -1       260 5.00000E+02
 -1       261 5.00000E+02
 -1       297 5.00000E+02
 -1       298 5.00000E+02
 -1       299 5.00000E+02
 -1       301 5.00000E+02
 -1       302 5.00000E+02
 -1       312 5.00000E+02
 -1       313 5.00000E+02
 -1       315 5.00000E+02
 -1       316 5.00000E+02
 -1       317 5.00000E+02
 -1       360 5.00000E+02
 -1       362 5.00000E+02
 -1       363 5.00000E+02
 -1       365 5.00000E+02
 -1       366 5.00000E+02
 -1       368 5.00000E+02
 -1       369 5.00000E+02
 -3
    1PSTEP                         6           2           1          
  100CL  102 1.000000000          40                     0    2           1
 -4  STRESS      6    1
 -5  SXX         1    4    1    1
 -5  SYY         1    4    2    2
 -5  SZZ         1    4    3    3
 -5  SXY         1    4    1    2
 -5  SYZ         1    4    2    3
 -5  SZX         1    4    3    1
 -1        38 3.15030E+01 3.15030E+01-3.17304E+02 5.85752E+00 3.02535E+01-3.02535E+01
 -1        39-5.83618E+01-5.83618E+01-4.20633E+02-6.29644E+00 4.43485E+00-4.43485E+00
 -1        40 1.36949E+02 1.36949E+02-3.52950E+02 2.14265E+00-1.72826E+01 1.72826E+01
 -1       113 3.30871E+01 4.58113E+01-2.87657E+02 2.05537E+00 3.91686E+01-5.06289E+00
 -1       114 3.96671E+01 4.62510E+01-2.85623E+02 4.11330E+00 3.43949E+01-1.74089E+01
 -1       115-5.18795E+01-5.45594E+01-3.82241E+02-3.62956E+00 4.89172E+00 2.45724E+00
 -1       117 1.63658E+02 1.66402E+02-2.90438E+02 1.02241E+00-2.26905E+01 5.94783E+00
 -1       118 1.57492E+02 1.58895E+02-3.05045E+02 1.60267E+00-1.94342E+01 1.18801E+01
 -1       141 4.62510E+01 3.96671E+01-2.85623E+02 4.11330E+00 1.74089E+01-3.43949E+01
 -1       142 4.58113E+01 3.30871E+01-2.87657E+02 2.05537E+00 5.06289E+00-3.91686E+01
 -1       144-5.45594E+01-5.18795E+01-3.82241E+02-3.62956E+00-2.45724E+00-4.89172E+00
 -1       145 1.58895E+02 1.57492E+02-3.05045E+02 1.60267E+00-1.18801E+01 1.94342E+01
 -1       146 1.66402E+02 1.63658E+02-2.90438E+02 1.02241E+00-5.94783E+00 2.26905E+01
 -1       232 5.07201E+01 5.68589E+01-2.54660E+02 1.18494E+00 2.23759E+01-5.12969E+00
 -1       234 5.18398E+01 5.18398E+01-2.58470E+02-1.38778E-04 5.94111E+00-5.94111E+00
 -1       235 5.68589E+01 5.07201E+01-2.54660E+02 1.18494E+00 5.12969E+00-2.23759E+01
 -1       237-4.24091E+01-4.24091E+01-3.36836E+02-1.95231E-04-3.25342E+00 3.25342E+00
 -1       238 1.89646E+02 1.90985E+02-2.33804E+02 5.32491E-01-1.44608E+01 5.38040E+00
 -1       240 1.99880E+02 1.99880E+02-2.13553E+02-5.04113E-04-5.82967E+00 5.82967E+00
 -1       241 1.90985E+02 1.89646E+02-2.33804E+02 5.32491E-01-5.38040E+00 1.44608E+01
 -1       259-1.40116E+02-1.40116E+02-2.99992E+02 2.12792E+00-2.18149E+01 2.18149E+01
 -1       260 6.11922E+01 6.11922E+01-2.30119E+02 4.09121E+00 4.61460E+00-4.61460E+00
 -1       261-4.69652E+01-4.69652E+01-3.45523E+02 9.06217E-01 3.62332E+01-3.62332E+01
 -1       297-1.67648E+02-1.64917E+02-3.63349E+02 1.02084E+00-2.01159E+01 5.93158E+00
 -1       298-1.61223E+02-1.59826E+02-3.48739E+02 1.59540E+00-2.03633E+01 1.42223E+01
 -1       299 5.45578E+01 5.50095E+01-2.67933E+02 2.65335E+00 4.76384E+00 2.18681E+00
 -1       301-3.67178E+01-4.34497E+01-3.61739E+02 1.76358E+00 3.52463E+01-6.82803E+00
 -1       302-4.94083E+01-5.30956E+01-3.70897E+02 1.10215E+00 3.54989E+01-2.11642E+01
 -1       312-1.59826E+02-1.61223E+02-3.48739E+02 1.59540E+00-1.42223E+01 2.03633E+01
 -1       313-1.64917E+02-1.67648E+02-3.63349E+02 1.02084E+00-5.93158E+00 2.01159E+01
 -1       315 5.50095E+01 5.45578E+01-2.67933E+02 2.65335E+00-2.18681E+00-4.76384E+00
 -1       316-5.30956E+01-4.94083E+01-3.70897E+02 1.10215E+00 2.11642E+01-3.54989E+01
 -1       317-4.34497E+01-3.67178E+01-3.61739E+02 1.76358E+00 6.82803E+00-3.52463E+01
 -1       360-1.89495E+02-1.88162E+02-4.17740E+02 5.31865E-01-1.31820E+01 5.35942E+00
 -1       362-1.95472E+02-1.95472E+02-4.35123E+02-5.24238E-04-5.80605E+00 5.80605E+00
 -1       363-1.88162E+02-1.89495E+02-4.17740E+02 5.31865E-01-5.35942E+00 1.31820E+01
 -1       365 4.08956E+01 4.08956E+01-3.15798E+02-7.94400E-05-2.77318E+00 2.77318E+00
 -1       366-4.94588E+01-5.25030E+01-3.94410E+02 6.48784E-01 2.03484E+01-6.06177E+00
 -1       368-4.51816E+01-4.51816E+01-3.89678E+02-1.84293E-04 5.93316E+00-5.93316E+00
 -1       369-5.25030E+01-4.94588E+01-3.94410E+02 6.48784E-01 6.06177E+00-2.03484E+01
 -3
 9999
