    1C
    1UUSER                                                              
    1UDATE              15.december.2018                                
    1UTIME              15:48:13                                        
    1UHOST                                                              
    1UPGM               CalculiX                                        
    1UVERSION           Version 2.15                             
    1UCOMPILETIME       Sa 15. Dez 14:32:01 CET 2018                    
    1UDIR                                                               
    1UDBN                                                               
    1UMAT    1EL                                                        
    1UMAT    2WATER                                                     
    2C                            14                                     1
 -1         1 2.00000E+00 1.00000E+01 1.22465E-16
 -1         2 2.00000E+00 0.00000E+00 1.22465E-16
 -1         3 2.30000E+00 0.00000E+00 1.40834E-16
 -1         4 2.30000E+00 1.00000E+01 1.40834E-16
 -1         5 2.00000E+00 5.00000E+00 1.22465E-16
 -1         6 2.15000E+00 0.00000E+00 1.31650E-16
 -1         7 2.30000E+00 5.00000E+00 1.40834E-16
 -1         8 2.15000E+00 1.00000E+01 1.31650E-16
 -1         9 0.00000E+00 1.10000E+01 0.00000E+00
 -1        10 0.00000E+00 1.00000E+01 0.00000E+00
 -1        11 0.00000E+00 5.00000E+00 0.00000E+00
 -1        12 0.00000E+00 0.00000E+00 0.00000E+00
 -1        13 0.00000E+00-1.00000E+00 0.00000E+00
 -1        14 3.00000E+00 5.00000E+00 1.83697E-16
 -3
    3C                             4                                     1
 -1         1   10    0    1
 -2         1         2         3         4         5         6         7         8
 -1         2   11    0    2
 -2         9        10
 -1         3   12    0    2
 -2        10        12        11
 -1         4   11    0    2
 -2        12        13
 -3
    1PSTEP                         1           1           1          
  100CL  101 1.000000000          14                     0    1           1
 -4  NDTEMP      1    1
 -5  T           1    1    0    0
 -1         1 2.73000E+02
 -1         2 8.21286E+02
 -1         3 8.27306E+02
 -1         4 2.82109E+02
 -1         5 9.65482E+02
 -1         6 8.23901E+02
 -1         7 9.61700E+02
 -1         8 2.77950E+02
 -1         9 1.00000E+03
 -1        10 1.00000E+03
 -1        11 9.67515E+02
 -1        12 9.35031E+02
 -1        13 9.35031E+02
 -1        14 0.00000E+00
 -3
    1PSTEP                         2           1           1          
  100CL  101 1.000000000           6                     0    1           1
 -4  TOTEMP      1    1
 -5  TT          1    1    0    0
 -1         9 1.00000E+03
 -1        10 1.00000E+03
 -1        11 9.67515E+02
 -1        12 9.35031E+02
 -1        13 9.35031E+02
 -1        14 0.00000E+00
 -3
    1PSTEP                         3           1           1          
  100CL  101 1.000000000           6                     0    1           1
 -4  MAFLOW      1    1
 -5  MF          1    1    0    0
 -1         9 5.00000E-07
 -1        10 5.00000E-07
 -1        11 5.00000E-07
 -1        12 5.00000E-07
 -1        13 5.00000E-07
 -1        14 0.00000E+00
 -3
    1PSTEP                         4           1           1          
  100CL  101 1.000000000           6                     0    1           1
 -4  TOPRES      1    1
 -5  PT          1    1    0    0
 -1         9 1.30000E-01
 -1        10 1.30000E-01
 -1        11 1.21889E-01
 -1        12 1.13778E-01
 -1        13 1.13778E-01
 -1        14 1.13778E-01
 -3
 9999
