    1C
    1UUSER                                                              
    1UDATE              15.december.2018                                
    1UTIME              15:48:17                                        
    1UHOST                                                              
    1UPGM               CalculiX                                        
    1UVERSION           Version 2.15                             
    1UCOMPILETIME       Sa 15. Dez 14:32:01 CET 2018                    
    1UDIR                                                               
    1UDBN                                                               
    1UMAT    1ALUM                                                      
    2C                            44                                     1
 -1        12-1.25000E-01 1.25000E-01 0.00000E+00
 -1        13-1.25000E-01-1.25000E-01 0.00000E+00
 -1        14 1.25000E-01-1.25000E-01 0.00000E+00
 -1        15 1.25000E-01 1.25000E-01 0.00000E+00
 -1        20-1.25000E-01 1.25000E-01 1.00000E+00
 -1        21-1.25000E-01-1.25000E-01 1.00000E+00
 -1        22 1.25000E-01-1.25000E-01 1.00000E+00
 -1        23 1.25000E-01 1.25000E-01 1.00000E+00
 -1        28-1.25000E-01 1.25000E-01 2.00000E+00
 -1        29-1.25000E-01-1.25000E-01 2.00000E+00
 -1        30 1.25000E-01-1.25000E-01 2.00000E+00
 -1        31 1.25000E-01 1.25000E-01 2.00000E+00
 -1        36-1.25000E-01 1.25000E-01 3.00000E+00
 -1        37-1.25000E-01-1.25000E-01 3.00000E+00
 -1        38 1.25000E-01-1.25000E-01 3.00000E+00
 -1        39 1.25000E-01 1.25000E-01 3.00000E+00
 -1        44-1.25000E-01 1.25000E-01 4.00000E+00
 -1        45-1.25000E-01-1.25000E-01 4.00000E+00
 -1        46 1.25000E-01-1.25000E-01 4.00000E+00
 -1        47 1.25000E-01 1.25000E-01 4.00000E+00
 -1        52-1.25000E-01 1.25000E-01 5.00000E+00
 -1        53-1.25000E-01-1.25000E-01 5.00000E+00
 -1        54 1.25000E-01-1.25000E-01 5.00000E+00
 -1        55 1.25000E-01 1.25000E-01 5.00000E+00
 -1        60-1.25000E-01 1.25000E-01 6.00000E+00
 -1        61-1.25000E-01-1.25000E-01 6.00000E+00
 -1        62 1.25000E-01-1.25000E-01 6.00000E+00
 -1        63 1.25000E-01 1.25000E-01 6.00000E+00
 -1        68-1.25000E-01 1.25000E-01 7.00000E+00
 -1        69-1.25000E-01-1.25000E-01 7.00000E+00
 -1        70 1.25000E-01-1.25000E-01 7.00000E+00
 -1        71 1.25000E-01 1.25000E-01 7.00000E+00
 -1        76-1.25000E-01 1.25000E-01 8.00000E+00
 -1        77-1.25000E-01-1.25000E-01 8.00000E+00
 -1        78 1.25000E-01-1.25000E-01 8.00000E+00
 -1        79 1.25000E-01 1.25000E-01 8.00000E+00
 -1        84-1.25000E-01 1.25000E-01 9.00000E+00
 -1        85-1.25000E-01-1.25000E-01 9.00000E+00
 -1        86 1.25000E-01-1.25000E-01 9.00000E+00
 -1        87 1.25000E-01 1.25000E-01 9.00000E+00
 -1        92-1.25000E-01 1.25000E-01 1.00000E+01
 -1        93-1.25000E-01-1.25000E-01 1.00000E+01
 -1        94 1.25000E-01-1.25000E-01 1.00000E+01
 -1        95 1.25000E-01 1.25000E-01 1.00000E+01
 -3
    3C                            10                                     1
 -1         1    1    0    1
 -2        12        20        21        13        15        23        22        14
 -1         2    1    0    1
 -2        20        28        29        21        23        31        30        22
 -1         3    1    0    1
 -2        28        36        37        29        31        39        38        30
 -1         4    1    0    1
 -2        36        44        45        37        39        47        46        38
 -1         5    1    0    1
 -2        44        52        53        45        47        55        54        46
 -1         6    1    0    1
 -2        52        60        61        53        55        63        62        54
 -1         7    1    0    1
 -2        60        68        69        61        63        71        70        62
 -1         8    1    0    1
 -2        68        76        77        69        71        79        78        70
 -1         9    1    0    1
 -2        76        84        85        77        79        87        86        78
 -1        10    1    0    1
 -2        84        92        93        85        87        95        94        86
 -3
    1PSTEP                         1           1           1          
  100CL  101 1.000000000          44                     0    1           1
 -4  DISP        4    1
 -5  D1          1    2    1    0
 -5  D2          1    2    2    0
 -5  D3          1    2    3    0
 -5  ALL         1    2    0    0    1ALL
 -1        12 4.74961E-15-1.38493E-05 1.23879E-20
 -1        13-4.74692E-15 1.38493E-05-1.23879E-20
 -1        14 4.74708E-15-1.38493E-05 1.23879E-20
 -1        15-4.74977E-15 1.38493E-05-1.23879E-20
 -1        20 1.46107E-03-1.30334E-05 3.64227E-04
 -1        21 1.46107E-03 1.30334E-05 3.64227E-04
 -1        22 1.46107E-03-1.30334E-05-3.64227E-04
 -1        23 1.46107E-03 1.30334E-05-3.64227E-04
 -1        28 5.68495E-03-1.15102E-05 6.90704E-04
 -1        29 5.68495E-03 1.15102E-05 6.90704E-04
 -1        30 5.68495E-03-1.15102E-05-6.90704E-04
 -1        31 5.68495E-03 1.15102E-05-6.90704E-04
 -1        36 1.23667E-02-1.00813E-05 9.78693E-04
 -1        37 1.23667E-02 1.00813E-05 9.78693E-04
 -1        38 1.23667E-02-1.00813E-05-9.78693E-04
 -1        39 1.23667E-02 1.00813E-05-9.78693E-04
 -1        44 2.11988E-02-8.63984E-06 1.22829E-03
 -1        45 2.11988E-02 8.63982E-06 1.22829E-03
 -1        46 2.11988E-02-8.63984E-06-1.22829E-03
 -1        47 2.11988E-02 8.63982E-06-1.22829E-03
 -1        52 3.18741E-02-7.20001E-06 1.43949E-03
 -1        53 3.18741E-02 7.19999E-06 1.43949E-03
 -1        54 3.18741E-02-7.20001E-06-1.43949E-03
 -1        55 3.18741E-02 7.19999E-06-1.43949E-03
 -1        60 4.40854E-02-5.76019E-06 1.61229E-03
 -1        61 4.40854E-02 5.76016E-06 1.61229E-03
 -1        62 4.40854E-02-5.76019E-06-1.61229E-03
 -1        63 4.40854E-02 5.76016E-06-1.61229E-03
 -1        68 5.75256E-02-4.31872E-06 1.74669E-03
 -1        69 5.75256E-02 4.31868E-06 1.74669E-03
 -1        70 5.75256E-02-4.31872E-06-1.74669E-03
 -1        71 5.75256E-02 4.31868E-06-1.74669E-03
 -1        76 7.18873E-02-2.88980E-06 1.84270E-03
 -1        77 7.18873E-02 2.88976E-06 1.84270E-03
 -1        78 7.18873E-02-2.88980E-06-1.84270E-03
 -1        79 7.18873E-02 2.88976E-06-1.84270E-03
 -1        84 8.68632E-02-1.36664E-06 1.90023E-03
 -1        85 8.68632E-02 1.36659E-06 1.90023E-03
 -1        86 8.68632E-02-1.36664E-06-1.90023E-03
 -1        87 8.68632E-02 1.36659E-06-1.90023E-03
 -1        92 1.02148E-01-5.50696E-07 1.92000E-03
 -1        93 1.02148E-01 5.50632E-07 1.92000E-03
 -1        94 1.02148E-01-5.50696E-07-1.92000E-03
 -1        95 1.02148E-01 5.50632E-07-1.92000E-03
 -3
    1PSTEP                         2           1           1          
  100CL  101 1.000000000          44                     0    1           1
 -4  STRESS      6    1
 -5  SXX         1    4    1    1
 -5  SYY         1    4    2    2
 -5  SZZ         1    4    3    3
 -5  SXY         1    4    1    2
 -5  SYZ         1    4    2    3
 -5  SZX         1    4    3    1
 -1        12-1.88294E+01-2.48442E+01 3.62915E+03 1.25529E+01 3.13823E+00 1.59994E+01
 -1        13-1.88294E+01-2.48442E+01 3.62915E+03-1.25529E+01-3.13823E+00 1.59994E+01
 -1        14 1.88294E+01 2.48442E+01-3.62915E+03-1.25529E+01 3.13823E+00 1.59994E+01
 -1        15 1.88294E+01 2.48442E+01-3.62915E+03 1.25529E+01-3.13823E+00 1.59994E+01
 -1        20-8.16004E+00-1.07667E+01 3.44782E+03 5.44003E+00 4.49824E+00 1.59994E+01
 -1        21-8.16004E+00-1.07667E+01 3.44782E+03-5.44003E+00-4.49824E+00 1.59994E+01
 -1        22 8.16004E+00 1.07667E+01-3.44782E+03-5.44003E+00 4.49824E+00 1.59994E+01
 -1        23 8.16004E+00 1.07667E+01-3.44782E+03 5.44003E+00-4.49824E+00 1.59994E+01
 -1        28 1.08745E+00 1.43482E+00 3.07307E+03-7.24966E-01 5.67700E+00 1.59994E+01
 -1        29 1.08745E+00 1.43482E+00 3.07307E+03 7.24966E-01-5.67700E+00 1.59994E+01
 -1        30-1.08745E+00-1.43482E+00-3.07307E+03 7.24966E-01 5.67700E+00 1.59994E+01
 -1        31-1.08745E+00-1.43482E+00-3.07307E+03-7.24966E-01-5.67700E+00 1.59994E+01
 -1        36-1.44875E-01-1.91153E-01 2.68784E+03 9.65832E-02 5.51991E+00 1.59994E+01
 -1        37-1.44875E-01-1.91153E-01 2.68784E+03-9.65832E-02-5.51991E+00 1.59994E+01
 -1        38 1.44875E-01 1.91153E-01-2.68784E+03-9.65832E-02 5.51991E+00 1.59994E+01
 -1        39 1.44875E-01 1.91153E-01-2.68784E+03 9.65832E-02-5.51991E+00 1.59994E+01
 -1        44 1.89700E-02 2.50297E-02 2.30400E+03-1.26466E-02 5.54089E+00 1.59994E+01
 -1        45 1.89700E-02 2.50297E-02 2.30400E+03 1.26466E-02-5.54089E+00 1.59994E+01
 -1        46-1.89700E-02-2.50297E-02-2.30400E+03 1.26466E-02 5.54089E+00 1.59994E+01
 -1        47-1.89700E-02-2.50297E-02-2.30400E+03-1.26466E-02-5.54089E+00 1.59994E+01
 -1        52 1.58466E-09 6.18833E-10 1.91999E+03-6.39968E-11 5.53773E+00 1.59994E+01
 -1        53-8.84864E-10-5.05608E-10 1.91999E+03-6.47129E-10-5.53773E+00 1.59994E+01
 -1        54-2.32706E-10 8.49525E-11-1.91999E+03 2.56518E-10 5.53773E+00 1.59994E+01
 -1        55 1.68311E-09 9.61350E-10-1.91999E+03 7.41215E-10-5.53773E+00 1.59994E+01
 -1        60-1.89700E-02-2.50297E-02 1.53597E+03 1.26466E-02 5.54089E+00 1.59994E+01
 -1        61-1.89700E-02-2.50297E-02 1.53597E+03-1.26466E-02-5.54089E+00 1.59994E+01
 -1        62 1.89700E-02 2.50297E-02-1.53597E+03-1.26466E-02 5.54089E+00 1.59994E+01
 -1        63 1.89700E-02 2.50297E-02-1.53597E+03 1.26466E-02-5.54089E+00 1.59994E+01
 -1        68 1.44875E-01 1.91153E-01 1.15214E+03-9.65832E-02 5.51991E+00 1.59994E+01
 -1        69 1.44875E-01 1.91153E-01 1.15214E+03 9.65832E-02-5.51991E+00 1.59994E+01
 -1        70-1.44875E-01-1.91153E-01-1.15214E+03 9.65832E-02 5.51991E+00 1.59994E+01
 -1        71-1.44875E-01-1.91153E-01-1.15214E+03-9.65832E-02-5.51991E+00 1.59994E+01
 -1        76-1.08745E+00-1.43482E+00 7.66908E+02 7.24966E-01 5.67700E+00 1.59994E+01
 -1        77-1.08745E+00-1.43482E+00 7.66908E+02-7.24966E-01-5.67700E+00 1.59994E+01
 -1        78 1.08745E+00 1.43482E+00-7.66908E+02-7.24966E-01 5.67700E+00 1.59994E+01
 -1        79 1.08745E+00 1.43482E+00-7.66908E+02 7.24966E-01-5.67700E+00 1.59994E+01
 -1        84 8.16004E+00 1.07667E+01 3.92158E+02-5.44003E+00 4.49824E+00 1.59994E+01
 -1        85 8.16004E+00 1.07667E+01 3.92158E+02 5.44003E+00-4.49824E+00 1.59994E+01
 -1        86-8.16004E+00-1.07667E+01-3.92158E+02 5.44003E+00 4.49824E+00 1.59994E+01
 -1        87-8.16004E+00-1.07667E+01-3.92158E+02-5.44003E+00-4.49824E+00 1.59994E+01
 -1        92 1.88294E+01 2.48442E+01 2.10828E+02-1.25529E+01 3.13823E+00 1.59994E+01
 -1        93 1.88294E+01 2.48442E+01 2.10828E+02 1.25529E+01-3.13823E+00 1.59994E+01
 -1        94-1.88294E+01-2.48442E+01-2.10828E+02 1.25529E+01 3.13823E+00 1.59994E+01
 -1        95-1.88294E+01-2.48442E+01-2.10828E+02-1.25529E+01-3.13823E+00 1.59994E+01
 -3
 9999
