
 displacements (vx,vy,vz) for set NALL and time  0.1000000E-02

         1  1.000000E-01 -3.942069E-19 -4.905000E-03
         2  1.000000E-01 -1.061142E-18 -4.905000E-03
         3  1.000000E-01  3.405419E-19 -4.905000E-03
         4  1.000000E-01  3.009325E-19 -4.905000E-03
         5  1.000000E-01  1.365744E-18 -4.905000E-03
         6  1.000000E-01  2.526242E-18 -4.905000E-03
         7  1.000000E-01  1.290275E-18 -4.905000E-03
         8  1.000000E-01  1.233363E-18 -4.905000E-03
         9  1.000000E-01  1.766758E-19 -4.905000E-03
        10  1.000000E-01 -3.275827E-19 -4.905000E-03
        11  1.000000E-01  1.054738E-18 -4.905000E-03
        12  1.000000E-01  5.272434E-19 -4.905000E-03
        13  1.000000E-01 -2.373058E-19 -4.905000E-03
        14  1.000000E-01  3.251585E-19 -4.905000E-03
        15  1.000000E-01  9.490358E-19 -4.905000E-03
        16  1.000000E-01 -3.515831E-19 -4.905000E-03
        17  1.000000E-01 -1.518327E-19 -4.905000E-03
        18  1.000000E-01  1.288165E-18 -4.905000E-03
        19  1.000000E-01 -3.440174E-19 -4.905000E-03
        20  1.000000E-01  1.029235E-18 -4.905000E-03
        21  1.000000E-01 -1.647477E-19 -4.905000E-03
        22  1.000000E-01 -1.051834E-18 -4.905000E-03
        23  1.000000E-01  3.369065E-19 -4.905000E-03
        24  1.000000E-01  1.285020E-18 -4.905000E-03
        25  1.000000E-01 -9.908091E-19 -4.905000E-03
        26  1.000000E-01  1.903509E-18 -4.905000E-03
        27  1.000000E-01 -9.954035E-20 -4.905000E-03
        28  1.000000E-01  8.752644E-19 -4.905000E-03
        29  1.000000E-01  1.429887E-18 -4.905000E-03
        30  1.000000E-01 -4.627699E-19 -4.905000E-03
        31  1.000000E-01 -2.571818E-19 -4.905000E-03
        32  1.000000E-01  2.941344E-19 -4.905000E-03
        33  1.000000E-01 -7.203057E-19 -4.905000E-03
        34  1.000000E-01 -5.270652E-19 -4.905000E-03
        35  1.000000E-01  3.370955E-19 -4.905000E-03
        36  1.000000E-01 -1.058624E-18 -4.905000E-03
        37  1.000000E-01 -1.653745E-18 -4.905000E-03
        38  1.000000E-01  1.735304E-18 -4.905000E-03
        39  1.000000E-01  6.203883E-19 -4.905000E-03
        40  1.000000E-01  5.276440E-19 -4.905000E-03
        41  1.000000E-01  5.832423E-19 -4.905000E-03
        42  1.000000E-01 -1.291196E-18 -4.905000E-03
        43  1.000000E-01 -4.456617E-19 -4.905000E-03
        44  1.000000E-01 -4.805989E-19 -4.905000E-03
        45  1.000000E-01 -8.580931E-19 -4.905000E-03
        46  1.000000E-01  1.708636E-18 -4.905000E-03
        47  1.000000E-01  2.734930E-18 -4.905000E-03
        48  1.000000E-01 -3.715353E-19 -4.905000E-03
        49  1.000000E-01 -6.760223E-19 -4.905000E-03
        50  1.000000E-01 -4.806543E-19 -4.905000E-03
        51  1.000000E-01 -7.179300E-19 -4.905000E-03
        52  1.000000E-01 -1.399785E-19 -4.905000E-03
        53  1.000000E-01 -7.356782E-20 -4.905000E-03
        54  1.000000E-01  9.855037E-19 -4.905000E-03
        55  1.000000E-01  3.513256E-18 -4.905000E-03
        56  1.000000E-01  1.159893E-18 -4.905000E-03
        57  1.000000E-01 -4.211969E-19 -4.905000E-03
        58  1.000000E-01 -5.182853E-19 -4.905000E-03
        59  1.000000E-01 -8.744394E-20 -4.905000E-03
        60  1.000000E-01  3.456618E-19 -4.905000E-03
        61  1.000000E-01  1.228457E-18 -4.905000E-03
        62  1.000000E-01 -1.097310E-18 -4.905000E-03
        63  1.000000E-01 -1.072741E-19 -4.905000E-03
        64  1.000000E-01  1.723716E-18 -4.905000E-03
        65  1.000000E-01 -2.216426E-18 -4.905000E-03
        66  1.000000E-01 -7.914370E-19 -4.905000E-03
        67  1.000000E-01  2.142703E-18 -4.905000E-03
        68  1.000000E-01  8.186254E-19 -4.905000E-03
        69  1.000000E-01  8.841036E-19 -4.905000E-03
        70  1.000000E-01  1.674415E-18 -4.905000E-03
        71  1.000000E-01  4.868196E-21 -4.905000E-03
        72  1.000000E-01  1.725099E-19 -4.905000E-03
        73  1.000000E-01 -1.627318E-18 -4.905000E-03
        74  1.000000E-01  1.984592E-20 -4.905000E-03
        75  1.000000E-01 -4.117967E-19 -4.905000E-03
        76  1.000000E-01  1.884494E-19 -4.905000E-03
        77  1.000000E-01 -3.115151E-19 -4.905000E-03
        78  1.000000E-01 -1.518794E-18 -4.905000E-03
        79  1.000000E-01 -1.927936E-18 -4.905000E-03
        80  1.000000E-01 -2.504257E-18 -4.905000E-03
        81  1.000000E-01  1.068300E-18 -4.905000E-03
        82  1.000000E-01 -1.402356E-18 -4.905000E-03
        83  1.000000E-01 -3.300371E-18 -4.905000E-03
        84  1.000000E-01 -1.408759E-19 -4.905000E-03
        85  1.000000E-01 -1.362723E-18 -4.905000E-03
        86  1.000000E-01 -1.885938E-18 -4.905000E-03
        87  1.000000E-01  3.587161E-19 -4.905000E-03
        88  1.000000E-01  1.137897E-18 -4.905000E-03
        89  1.000000E-01 -2.008041E-18 -4.905000E-03
        90  1.000000E-01  2.772571E-20 -4.905000E-03
        91  1.000000E-01  4.818172E-19 -4.905000E-03
        92  1.000000E-01  9.882777E-19 -4.905000E-03
        93  1.000000E-01 -1.041410E-18 -4.905000E-03
        94  1.000000E-01 -1.132453E-18 -4.905000E-03
        95  1.000000E-01 -2.943582E-18 -4.905000E-03
        96  1.000000E-01 -5.759826E-19 -4.905000E-03
        97  1.000000E-01  1.075322E-18 -4.905000E-03
        98  1.000000E-01  3.022968E-18 -4.905000E-03
        99  1.000000E-01  3.894843E-19 -4.905000E-03
       100  1.000000E-01  1.775232E-18 -4.905000E-03
       101  1.000000E-01  1.651339E-18 -4.905000E-03
       102  1.000000E-01 -1.194668E-19 -4.905000E-03
       103  1.000000E-01  1.939592E-18 -4.905000E-03
       104  1.000000E-01  1.966009E-18 -4.905000E-03
       105  1.000000E-01  3.113987E-18 -4.905000E-03
       106  1.000000E-01  1.182603E-18 -4.905000E-03
       107  1.000000E-01  5.341086E-19 -4.905000E-03
       108  1.000000E-01  2.233270E-18 -4.905000E-03
       109  1.000000E-01  1.859641E-18 -4.905000E-03
       110  1.000000E-01  1.001490E-18 -4.905000E-03
       111  1.000000E-01  8.402858E-19 -4.905000E-03
       112  1.000000E-01  5.620347E-19 -4.905000E-03
       113  1.000000E-01  4.527699E-18 -4.905000E-03
       114  1.000000E-01  9.710772E-19 -4.905000E-03
       115  1.000000E-01  6.279931E-19 -4.905000E-03
       116  1.000000E-01  5.656013E-19 -4.905000E-03
       117  1.000000E-01  1.576775E-18 -4.905000E-03
       118  1.000000E-01  5.144691E-19 -4.905000E-03
       119  1.000000E-01  1.300362E-18 -4.905000E-03
       120  1.000000E-01  1.180549E-18 -4.905000E-03
       121  1.000000E-01  2.631856E-18 -4.905000E-03
       122  1.000000E-01  5.216763E-18 -4.905000E-03
       123  1.000000E-01  2.628552E-19 -4.905000E-03
       124  1.000000E-01  6.278542E-19 -4.905000E-03
       125  1.000000E-01  1.740557E-18 -4.905000E-03
       126  1.000000E-01 -7.015570E-19 -4.905000E-03
       127  1.000000E-01  3.682400E-19 -4.905000E-03
       128  1.000000E-01  1.571386E-18 -4.905000E-03
       129  1.000000E-01  1.414188E-18 -4.905000E-03
       130  1.000000E-01  5.186594E-19 -4.905000E-03
       131  1.000000E-01  6.833715E-19 -4.905000E-03
       132  1.000000E-01  4.197196E-19 -4.905000E-03
       133  1.000000E-01 -6.083787E-19 -4.905000E-03
       134  1.000000E-01  7.317442E-19 -4.905000E-03
       135  1.000000E-01  6.474428E-19 -4.905000E-03
       136  1.000000E-01 -4.116765E-19 -4.905000E-03
       137  1.000000E-01  6.483118E-20 -4.905000E-03
       138  1.000000E-01 -5.219960E-19 -4.905000E-03
       139  1.000000E-01 -4.428460E-20 -4.905000E-03
       140  1.000000E-01 -6.898399E-21 -4.905000E-03
       141  1.000000E-01 -4.012771E-19 -4.905000E-03
       142  1.000000E-01 -3.825161E-19 -4.905000E-03
       143  1.000000E-01  1.743486E-19 -4.905000E-03
       144  1.000000E-01  9.969843E-20 -4.905000E-03
       145  1.000000E-01 -8.583178E-19 -4.905000E-03
       146  1.000000E-01 -6.189038E-19 -4.905000E-03
       147  1.000000E-01 -7.134072E-19 -4.905000E-03
       148  1.000000E-01 -2.318875E-18 -4.905000E-03
       149  1.000000E-01  8.808491E-19 -4.905000E-03
       150  1.000000E-01 -3.849918E-19 -4.905000E-03
       151  1.000000E-01 -4.966961E-18 -4.905000E-03
       152  1.000000E-01 -9.337256E-19 -4.905000E-03
       153  1.000000E-01 -1.447037E-18 -4.905000E-03
       154  1.000000E-01  9.611868E-19 -4.905000E-03
       155  1.000000E-01  8.622086E-19 -4.905000E-03
       156  1.000000E-01  2.267289E-18 -4.905000E-03
       157  1.000000E-01 -1.908927E-18 -4.905000E-03
       158  1.000000E-01 -5.147923E-19 -4.905000E-03
       159  1.000000E-01  1.322865E-18 -4.905000E-03
       160  1.000000E-01  3.751596E-18 -4.905000E-03
       161  1.000000E-01  2.023039E-18 -4.905000E-03
       162  1.000000E-01  4.645434E-18 -4.905000E-03
       163  1.000000E-01  2.145303E-18 -4.905000E-03
       164  1.000000E-01  2.077772E-18 -4.905000E-03
       165  1.000000E-01 -9.422778E-19 -4.905000E-03
       166  1.000000E-01 -4.383835E-19 -4.905000E-03
       167  1.000000E-01  1.830525E-18 -4.905000E-03
       168  1.000000E-01  2.669508E-18 -4.905000E-03
       169  1.000000E-01  1.493541E-18 -4.905000E-03
       170  1.000000E-01  4.631352E-19 -4.905000E-03
       171  1.000000E-01  2.349714E-18 -4.905000E-03
       172  1.000000E-01 -9.428701E-20 -4.905000E-03
       173  1.000000E-01  2.697467E-18 -4.905000E-03
       174  1.000000E-01  2.903568E-19 -4.905000E-03
       175  1.000000E-01  5.630183E-19 -4.905000E-03
       176  1.000000E-01 -1.155145E-19 -4.905000E-03
       177  1.000000E-01  5.692614E-19 -4.905000E-03
       178  1.000000E-01  3.646608E-18 -4.905000E-03
       179  1.000000E-01  1.058518E-18 -4.905000E-03
       180  1.000000E-01  1.135802E-18 -4.905000E-03
       181  1.000000E-01  1.625122E-18 -4.905000E-03
       182  1.000000E-01 -8.282145E-19 -4.905000E-03
       183  1.000000E-01 -7.921759E-21 -4.905000E-03
       184  1.000000E-01  1.456515E-18 -4.905000E-03
       185  1.000000E-01  6.142787E-19 -4.905000E-03
       186  1.000000E-01  1.519849E-18 -4.905000E-03
       187  1.000000E-01  1.092163E-18 -4.905000E-03
       188  1.000000E-01  4.883137E-18 -4.905000E-03
       189  1.000000E-01 -1.681315E-18 -4.905000E-03
       190  1.000000E-01  2.809192E-18 -4.905000E-03
       191  1.000000E-01  1.922916E-18 -4.905000E-03
       192  1.000000E-01  4.602923E-18 -4.905000E-03
       193  1.000000E-01  3.126288E-18 -4.905000E-03
       194  1.000000E-01  3.209791E-19 -4.905000E-03
       195  1.000000E-01  2.929673E-18 -4.905000E-03
       196  1.000000E-01  1.212478E-18 -4.905000E-03
       197  1.000000E-01  1.886032E-18 -4.905000E-03
       198  1.000000E-01 -5.674486E-19 -4.905000E-03
       199  1.000000E-01 -4.248483E-19 -4.905000E-03
       200  1.000000E-01  8.989002E-19 -4.905000E-03
       201  1.000000E-01  2.199360E-18 -4.905000E-03
       202  1.000000E-01  1.780771E-18 -4.905000E-03
       203  1.000000E-01 -2.028579E-18 -4.905000E-03
       204  1.000000E-01  6.557605E-19 -4.905000E-03
       205  1.000000E-01 -1.673292E-18 -4.905000E-03
       206  1.000000E-01  3.021942E-19 -4.905000E-03
       207  1.000000E-01 -1.205736E-18 -4.905000E-03
       208  1.000000E-01  8.306026E-19 -4.905000E-03
       209  1.000000E-01 -1.012613E-18 -4.905000E-03
       210  1.000000E-01 -1.102918E-18 -4.905000E-03
       211  1.000000E-01 -1.744559E-18 -4.905000E-03
       212  1.000000E-01  1.390586E-18 -4.905000E-03
       213  1.000000E-01 -2.138952E-19 -4.905000E-03
       214  1.000000E-01 -1.917986E-19 -4.905000E-03
       215  1.000000E-01 -2.508693E-19 -4.905000E-03
       216  1.000000E-01 -9.604278E-19 -4.905000E-03
       217  1.000000E-01 -1.256506E-18 -4.905000E-03
       218  1.000000E-01  1.199716E-18 -4.905000E-03
       219  1.000000E-01  5.599234E-18 -4.905000E-03
       220  1.000000E-01  2.895185E-19 -4.905000E-03
       221  1.000000E-01 -1.738714E-19 -4.905000E-03
       222  1.000000E-01 -2.650820E-18 -4.905000E-03
       223  1.000000E-01 -1.371088E-18 -4.905000E-03
       224  1.000000E-01 -4.570756E-19 -4.905000E-03
       225  1.000000E-01 -2.036040E-18 -4.905000E-03
       226  1.000000E-01 -2.690028E-18 -4.905000E-03
       227  1.000000E-01 -1.392683E-18 -4.905000E-03
       228  1.000000E-01 -3.598149E-19 -4.905000E-03
       229  1.000000E-01 -1.695737E-18 -4.905000E-03
       230  1.000000E-01 -2.602244E-19 -4.905000E-03
       231  1.000000E-01  1.021380E-18 -4.905000E-03
       232  1.000000E-01 -3.901580E-18 -4.905000E-03
       233  1.000000E-01  2.278008E-18 -4.905000E-03
       234  1.000000E-01 -1.606270E-19 -4.905000E-03
       235  1.000000E-01 -1.469514E-19 -4.905000E-03
       236  1.000000E-01  1.600657E-18 -4.905000E-03
       237  1.000000E-01  1.196559E-19 -4.905000E-03
       238  1.000000E-01  1.234451E-18 -4.905000E-03
       239  1.000000E-01  2.203257E-18 -4.905000E-03
       240  1.000000E-01 -4.754417E-19 -4.905000E-03
       241  1.000000E-01  2.221321E-18 -4.905000E-03
       242  1.000000E-01  1.087782E-20 -4.905000E-03
       243  1.000000E-01  7.735802E-19 -4.905000E-03
       244  1.000000E-01  2.438104E-18 -4.905000E-03
       245  1.000000E-01 -1.526392E-18 -4.905000E-03
       246  1.000000E-01  9.503480E-19 -4.905000E-03
       247  1.000000E-01 -1.586763E-18 -4.905000E-03
       248  1.000000E-01 -4.724625E-19 -4.905000E-03
       249  1.000000E-01  9.835434E-19 -4.905000E-03
       250  1.000000E-01  1.264599E-18 -4.905000E-03
       251  1.000000E-01  3.429318E-19 -4.905000E-03
       252  1.000000E-01  3.013287E-18 -4.905000E-03
       253  1.000000E-01 -2.635538E-18 -4.905000E-03
       254  1.000000E-01  1.400881E-18 -4.905000E-03
       255  1.000000E-01 -2.583431E-18 -4.905000E-03
       256  1.000000E-01  1.348808E-18 -4.905000E-03
       257  1.000000E-01  9.472299E-19 -4.905000E-03
       258  1.000000E-01  2.069993E-18 -4.905000E-03
       259  1.000000E-01 -3.597089E-18 -4.905000E-03
       260  1.000000E-01  1.751868E-18 -4.905000E-03
       261  1.000000E-01  7.013571E-19 -4.905000E-03
       262  1.000000E-01 -1.685595E-18 -4.905000E-03
       263  1.000000E-01  2.384669E-18 -4.905000E-03
       264  1.000000E-01 -1.141280E-18 -4.905000E-03
       265  1.000000E-01 -6.014688E-19 -4.905000E-03
       266  1.000000E-01  1.302787E-18 -4.905000E-03
       267  1.000000E-01  5.036769E-19 -4.905000E-03
       268  1.000000E-01  2.990393E-18 -4.905000E-03
       269  1.000000E-01 -8.162008E-19 -4.905000E-03
       270  1.000000E-01 -9.247023E-19 -4.905000E-03
       271  1.000000E-01 -5.126426E-19 -4.905000E-03
       272  1.000000E-01  1.834127E-18 -4.905000E-03
       273  1.000000E-01  1.491374E-18 -4.905000E-03
       274  1.000000E-01 -9.303113E-19 -4.905000E-03
       275  1.000000E-01 -3.386426E-19 -4.905000E-03
       276  1.000000E-01 -1.196139E-18 -4.905000E-03
       277  1.000000E-01 -1.378866E-18 -4.905000E-03
       278  1.000000E-01  1.106887E-18 -4.905000E-03
       279  1.000000E-01  9.898227E-20 -4.905000E-03
       280  1.000000E-01 -2.130579E-18 -4.905000E-03
       281  1.000000E-01 -3.093111E-19 -4.905000E-03
       282  1.000000E-01  1.187502E-18 -4.905000E-03
       283  1.000000E-01 -6.663841E-19 -4.905000E-03
       284  1.000000E-01  1.222621E-18 -4.905000E-03
       285  1.000000E-01 -6.889775E-19 -4.905000E-03
       286  1.000000E-01 -3.055113E-19 -4.905000E-03
       287  1.000000E-01  1.524804E-18 -4.905000E-03
       288  1.000000E-01 -1.461463E-18 -4.905000E-03
       289  1.000000E-01 -7.290684E-19 -4.905000E-03
       290  1.000000E-01 -9.225780E-19 -4.905000E-03
       291  1.000000E-01 -3.220973E-19 -4.905000E-03
       292  1.000000E-01  1.355018E-18 -4.905000E-03
       293  1.000000E-01 -9.756937E-19 -4.905000E-03
       294  1.000000E-01 -1.674670E-18 -4.905000E-03
       295  1.000000E-01 -2.955597E-18 -4.905000E-03
       296  1.000000E-01 -2.987786E-18 -4.905000E-03
       297  1.000000E-01  2.601561E-19 -4.905000E-03
       298  1.000000E-01 -1.920993E-18 -4.905000E-03
       299  1.000000E-01 -1.514970E-18 -4.905000E-03
       300  1.000000E-01 -9.934285E-19 -4.905000E-03
       301  1.000000E-01 -2.114577E-18 -4.905000E-03
       302  1.000000E-01 -1.943499E-19 -4.905000E-03
       303  1.000000E-01 -6.658035E-19 -4.905000E-03
       304  1.000000E-01  1.153893E-18 -4.905000E-03
       305  1.000000E-01 -9.596949E-19 -4.905000E-03
       306  1.000000E-01  1.701220E-18 -4.905000E-03
       307  1.000000E-01  1.964280E-18 -4.905000E-03
       308  1.000000E-01  1.933358E-19 -4.905000E-03
       309  1.000000E-01 -2.330541E-19 -4.905000E-03
       310  1.000000E-01  1.300404E-18 -4.905000E-03
       311  1.000000E-01  1.911732E-19 -4.905000E-03
       312  1.000000E-01  1.835826E-18 -4.905000E-03
       313  1.000000E-01 -8.928844E-19 -4.905000E-03
       314  1.000000E-01  3.645433E-18 -4.905000E-03
       315  1.000000E-01 -3.774018E-19 -4.905000E-03
       316  1.000000E-01  1.702478E-18 -4.905000E-03
       317  1.000000E-01  1.613553E-18 -4.905000E-03
       318  1.000000E-01  5.763259E-19 -4.905000E-03
       319  1.000000E-01 -7.860631E-20 -4.905000E-03
       320  1.000000E-01 -1.427444E-19 -4.905000E-03
       321  1.000000E-01 -4.588849E-19 -4.905000E-03
       322  1.000000E-01  1.596476E-18 -4.905000E-03
       323  1.000000E-01  8.856933E-19 -4.905000E-03
       324  1.000000E-01 -1.302146E-20 -4.905000E-03
       325  1.000000E-01  8.469441E-19 -4.905000E-03
       326  1.000000E-01  2.281389E-18 -4.905000E-03
       327  1.000000E-01 -1.939600E-19 -4.905000E-03
       328  1.000000E-01 -2.239159E-18 -4.905000E-03
       329  1.000000E-01  5.949862E-19 -4.905000E-03
       330  1.000000E-01 -1.790935E-19 -4.905000E-03
       331  1.000000E-01 -1.397398E-20 -4.905000E-03
       332  1.000000E-01  1.999166E-18 -4.905000E-03
       333  1.000000E-01 -9.872954E-19 -4.905000E-03
       334  1.000000E-01 -1.624507E-18 -4.905000E-03
       335  1.000000E-01 -5.035879E-19 -4.905000E-03
       336  1.000000E-01 -1.021737E-18 -4.905000E-03
       337  1.000000E-01  4.086415E-19 -4.905000E-03
       338  1.000000E-01  1.640871E-19 -4.905000E-03
       339  1.000000E-01 -1.091256E-18 -4.905000E-03
       340  1.000000E-01  1.194948E-18 -4.905000E-03
       341  1.000000E-01 -2.983750E-20 -4.905000E-03
       342  1.000000E-01 -1.803274E-19 -4.905000E-03
       343  1.000000E-01 -1.148096E-18 -4.905000E-03
       344  1.000000E-01 -2.280015E-18 -4.905000E-03
       345  1.000000E-01 -7.702909E-19 -4.905000E-03
       346  1.000000E-01 -8.174860E-19 -4.905000E-03
       347  1.000000E-01  6.467942E-19 -4.905000E-03
       348  1.000000E-01  2.602660E-18 -4.905000E-03
       349  1.000000E-01  5.863213E-19 -4.905000E-03
       350  1.000000E-01 -1.496813E-18 -4.905000E-03
       351  1.000000E-01 -1.586839E-18 -4.905000E-03
       352  1.000000E-01  1.152803E-18 -4.905000E-03
       353  1.000000E-01 -6.661719E-19 -4.905000E-03
       354  1.000000E-01 -8.942578E-19 -4.905000E-03
       355  1.000000E-01 -1.278413E-18 -4.905000E-03
       356  1.000000E-01 -2.428689E-18 -4.905000E-03
       357  1.000000E-01 -3.491848E-18 -4.905000E-03
       358  1.000000E-01  1.194501E-18 -4.905000E-03
       359  1.000000E-01  8.565950E-19 -4.905000E-03
       360  1.000000E-01 -1.658862E-18 -4.905000E-03
       361  1.000000E-01 -7.042396E-19 -4.905000E-03
       362  1.000000E-01 -1.016396E-19 -4.905000E-03
       363  1.000000E-01  7.652827E-19 -4.905000E-03
       364  1.000000E-01  3.060201E-18 -4.905000E-03
       365  1.000000E-01 -4.975243E-19 -4.905000E-03
       366  1.000000E-01 -2.113690E-18 -4.905000E-03
       367  1.000000E-01  1.741168E-18 -4.905000E-03
       368  1.000000E-01 -6.692672E-20 -4.905000E-03
       369  1.000000E-01  4.597218E-19 -4.905000E-03
       370  1.000000E-01  2.051095E-18 -4.905000E-03
       371  1.000000E-01  4.611605E-19 -4.905000E-03
       372  1.000000E-01 -1.358996E-18 -4.905000E-03
       373  1.000000E-01  9.204456E-19 -4.905000E-03
       374  1.000000E-01 -4.199987E-19 -4.905000E-03
       375  1.000000E-01 -1.075279E-18 -4.905000E-03
       376  1.000000E-01  1.709869E-18 -4.905000E-03
       377  1.000000E-01  1.338623E-18 -4.905000E-03
       378  1.000000E-01  1.233617E-19 -4.905000E-03
       379  1.000000E-01 -2.105574E-18 -4.905000E-03
       380  1.000000E-01  3.774584E-19 -4.905000E-03
       381  1.000000E-01 -5.557397E-19 -4.905000E-03
       382  1.000000E-01  9.028783E-19 -4.905000E-03
       383  1.000000E-01 -8.902662E-19 -4.905000E-03
       384  1.000000E-01 -1.265541E-19 -4.905000E-03
       385  1.000000E-01 -2.272100E-18 -4.905000E-03
       386  1.000000E-01  1.787327E-18 -4.905000E-03
       387  1.000000E-01  8.719730E-19 -4.905000E-03
       388  1.000000E-01 -1.610898E-18 -4.905000E-03
       389  1.000000E-01 -8.790672E-19 -4.905000E-03
       390  1.000000E-01  3.260392E-19 -4.905000E-03
       391  1.000000E-01 -9.708570E-19 -4.905000E-03
       392  1.000000E-01 -1.064920E-18 -4.905000E-03
       393  1.000000E-01 -1.263970E-18 -4.905000E-03
       394  1.000000E-01 -2.294332E-18 -4.905000E-03
       395  1.000000E-01  1.735529E-18 -4.905000E-03
       396  1.000000E-01 -1.876572E-19 -4.905000E-03
       397  1.000000E-01 -1.138778E-18 -4.905000E-03
       398  1.000000E-01 -1.075242E-18 -4.905000E-03
       399  1.000000E-01 -5.895681E-19 -4.905000E-03
       400  1.000000E-01  2.116949E-20 -4.905000E-03
       401  1.000000E-01 -2.286244E-18 -4.905000E-03
       402  1.000000E-01 -7.666730E-19 -4.905000E-03
       403  1.000000E-01 -3.968383E-19 -4.905000E-03
       404  1.000000E-01 -1.070712E-18 -4.905000E-03
       405  1.000000E-01 -8.591482E-19 -4.905000E-03
       406  1.000000E-01 -7.619231E-19 -4.905000E-03
       407  1.000000E-01  4.750655E-19 -4.905000E-03
       408  1.000000E-01  8.426277E-19 -4.905000E-03
       409  1.000000E-01  8.861555E-19 -4.905000E-03
       410  1.000000E-01 -9.809135E-19 -4.905000E-03
       411  1.000000E-01 -9.464476E-19 -4.905000E-03
       412  1.000000E-01  1.210420E-20 -4.905000E-03
       413  1.000000E-01  2.381877E-18 -4.905000E-03
       414  1.000000E-01  7.827390E-19 -4.905000E-03
       415  1.000000E-01 -1.982489E-18 -4.905000E-03
       416  1.000000E-01  7.917738E-19 -4.905000E-03
       417  1.000000E-01  2.110224E-18 -4.905000E-03
       418  1.000000E-01  3.271569E-18 -4.905000E-03
       419  1.000000E-01 -4.014497E-19 -4.905000E-03
       420  1.000000E-01 -2.011504E-18 -4.905000E-03
       421  1.000000E-01 -6.926836E-19 -4.905000E-03
       422  1.000000E-01 -3.519742E-18 -4.905000E-03
       423  1.000000E-01 -2.078841E-18 -4.905000E-03
       424  1.000000E-01 -1.767628E-18 -4.905000E-03
       425  1.000000E-01 -1.585788E-18 -4.905000E-03
       426  1.000000E-01  3.594154E-19 -4.905000E-03
       427  1.000000E-01  1.725327E-18 -4.905000E-03
       428  1.000000E-01  7.833758E-20 -4.905000E-03
       429  1.000000E-01  3.515894E-19 -4.905000E-03
       430  1.000000E-01 -1.049594E-18 -4.905000E-03
       431  1.000000E-01 -1.412361E-18 -4.905000E-03
       432  1.000000E-01 -2.337088E-18 -4.905000E-03
       433  1.000000E-01 -1.014619E-19 -4.905000E-03
       434  1.000000E-01  1.526107E-18 -4.905000E-03
       435  1.000000E-01 -9.464535E-19 -4.905000E-03
       436  1.000000E-01  1.528604E-18 -4.905000E-03
       437  1.000000E-01 -3.320154E-19 -4.905000E-03
       438  1.000000E-01  1.109919E-18 -4.905000E-03
       439  1.000000E-01  1.077088E-18 -4.905000E-03
       440  1.000000E-01 -4.289167E-18 -4.905000E-03
       441  1.000000E-01 -2.170145E-18 -4.905000E-03
       442  1.000000E-01 -2.362928E-18 -4.905000E-03
       443  1.000000E-01 -1.031917E-18 -4.905000E-03
       444  1.000000E-01 -2.247932E-18 -4.905000E-03
       445  1.000000E-01 -3.116031E-18 -4.905000E-03
       446  1.000000E-01  3.476433E-18 -4.905000E-03
       447  1.000000E-01 -3.533391E-19 -4.905000E-03
       448  1.000000E-01 -1.518566E-18 -4.905000E-03
       449  1.000000E-01  1.417505E-18 -4.905000E-03
       450  1.000000E-01 -3.933932E-19 -4.905000E-03
       451  1.000000E-01 -4.006638E-19 -4.905000E-03
       452  1.000000E-01 -1.166482E-18 -4.905000E-03
       453  1.000000E-01 -1.923871E-18 -4.905000E-03
       454  1.000000E-01 -1.385676E-18 -4.905000E-03
       455  1.000000E-01 -1.468560E-18 -4.905000E-03
       456  1.000000E-01 -9.075518E-19 -4.905000E-03
       457  1.000000E-01  4.708649E-19 -4.905000E-03
       458  1.000000E-01 -3.331809E-19 -4.905000E-03
       459  1.000000E-01 -6.731947E-19 -4.905000E-03
       460  1.000000E-01 -1.592182E-19 -4.905000E-03
       461  1.000000E-01 -7.826198E-19 -4.905000E-03
       462  1.000000E-01 -2.055372E-18 -4.905000E-03
       463  1.000000E-01 -6.906922E-19 -4.905000E-03
       464  1.000000E-01 -1.596584E-18 -4.905000E-03
       465  1.000000E-01 -8.315239E-19 -4.905000E-03
       466  1.000000E-01 -1.525084E-18 -4.905000E-03
       467  1.000000E-01  1.193832E-20 -4.905000E-03
       468  1.000000E-01 -3.318072E-18 -4.905000E-03
       469  1.000000E-01  1.926154E-18 -4.905000E-03
       470  1.000000E-01 -1.912357E-19 -4.905000E-03
       471  1.000000E-01 -6.756057E-19 -4.905000E-03
       472  1.000000E-01 -3.470757E-18 -4.905000E-03
       473  1.000000E-01 -1.817403E-19 -4.905000E-03
       474  1.000000E-01 -8.334985E-19 -4.905000E-03
       475  1.000000E-01 -2.375392E-18 -4.905000E-03
       476  1.000000E-01  1.010306E-18 -4.905000E-03
       477  1.000000E-01 -2.216251E-19 -4.905000E-03
       478  1.000000E-01  3.010724E-18 -4.905000E-03
       479  1.000000E-01  1.526355E-18 -4.905000E-03
       480  1.000000E-01  1.700964E-18 -4.905000E-03
       481  1.000000E-01  9.473552E-19 -4.905000E-03
       482  1.000000E-01 -1.716555E-19 -4.905000E-03
       483  1.000000E-01 -9.500429E-19 -4.905000E-03
       484  1.000000E-01 -5.030996E-19 -4.905000E-03
       485  1.000000E-01 -4.871524E-20 -4.905000E-03
       486  1.000000E-01 -1.851526E-19 -4.905000E-03
       487  1.000000E-01  8.324189E-19 -4.905000E-03
       488  1.000000E-01  3.684204E-19 -4.905000E-03
       489  1.000000E-01  2.955907E-18 -4.905000E-03
       490  1.000000E-01 -2.358525E-18 -4.905000E-03
       491  1.000000E-01 -5.910226E-19 -4.905000E-03
       492  1.000000E-01  4.228067E-19 -4.905000E-03
       493  1.000000E-01  7.110764E-19 -4.905000E-03
       494  1.000000E-01 -1.674281E-18 -4.905000E-03
       495  1.000000E-01 -7.907277E-19 -4.905000E-03
       496  1.000000E-01  1.297577E-18 -4.905000E-03
       497  1.000000E-01  1.136027E-18 -4.905000E-03
       498  1.000000E-01 -5.249825E-19 -4.905000E-03
       499  1.000000E-01  1.083822E-18 -4.905000E-03
       500  1.000000E-01 -1.219781E-18 -4.905000E-03
       501  1.000000E-01  8.288592E-19 -4.905000E-03
       502  1.000000E-01 -6.637363E-19 -4.905000E-03
       503  1.000000E-01 -2.367147E-18 -4.905000E-03
       504  1.000000E-01  1.409586E-18 -4.905000E-03
       505  1.000000E-01 -3.052946E-18 -4.905000E-03
       506  1.000000E-01 -3.842959E-18 -4.905000E-03
       507  1.000000E-01 -1.264497E-18 -4.905000E-03
       508  1.000000E-01 -5.792749E-19 -4.905000E-03
       509  1.000000E-01 -1.125104E-18 -4.905000E-03
       510  1.000000E-01 -1.514650E-18 -4.905000E-03
       511  1.000000E-01 -1.061241E-18 -4.905000E-03
       512  1.000000E-01 -8.187437E-19 -4.905000E-03
       513  1.000000E-01 -1.671023E-18 -4.905000E-03
       514  1.000000E-01 -2.008445E-18 -4.905000E-03
       515  1.000000E-01 -3.766259E-18 -4.905000E-03
       516  1.000000E-01 -4.204467E-19 -4.905000E-03
       517  1.000000E-01 -7.017331E-20 -4.905000E-03
       518  1.000000E-01 -1.618013E-18 -4.905000E-03
       519  1.000000E-01  5.234776E-19 -4.905000E-03
       520  1.000000E-01 -3.947969E-19 -4.905000E-03
       521  1.000000E-01 -8.603124E-20 -4.905000E-03
       522  1.000000E-01 -6.117732E-19 -4.905000E-03
       523  1.000000E-01  1.121774E-18 -4.905000E-03
       524  1.000000E-01  1.617843E-18 -4.905000E-03
       525  1.000000E-01 -1.479365E-18 -4.905000E-03
       526  1.000000E-01 -9.786077E-19 -4.905000E-03
       527  1.000000E-01  1.761224E-18 -4.905000E-03
       528  1.000000E-01 -1.524649E-18 -4.905000E-03
       529  1.000000E-01  3.264519E-19 -4.905000E-03
       530  1.000000E-01 -6.295120E-20 -4.905000E-03
       531  1.000000E-01  2.937302E-18 -4.905000E-03
       532  1.000000E-01 -1.362157E-18 -4.905000E-03
       533  1.000000E-01  1.521905E-18 -4.905000E-03
       534  1.000000E-01  1.490214E-18 -4.905000E-03
       535  1.000000E-01  1.084519E-18 -4.905000E-03
       536  1.000000E-01  2.938471E-19 -4.905000E-03
       537  1.000000E-01 -7.788963E-19 -4.905000E-03
       538  1.000000E-01  1.280369E-18 -4.905000E-03
       539  1.000000E-01  8.337388E-20 -4.905000E-03
       540  1.000000E-01  6.281837E-19 -4.905000E-03
       541  1.000000E-01 -9.094911E-19 -4.905000E-03
       542  1.000000E-01 -1.478235E-19 -4.905000E-03
       543  1.000000E-01  9.634354E-19 -4.905000E-03
       544  1.000000E-01 -3.430761E-19 -4.905000E-03
       545  1.000000E-01  3.185395E-19 -4.905000E-03
       546  1.000000E-01 -1.837576E-19 -4.905000E-03
       547  1.000000E-01 -3.877020E-19 -4.905000E-03
       548  1.000000E-01  1.701183E-19 -4.905000E-03
       549  1.000000E-01  1.030785E-19 -4.905000E-03
       550  1.000000E-01 -1.993606E-18 -4.905000E-03
       551  1.000000E-01  2.632868E-19 -4.905000E-03
       552  1.000000E-01  3.798135E-19 -4.905000E-03
       553  1.000000E-01  1.875391E-18 -4.905000E-03
       554  1.000000E-01  5.914419E-19 -4.905000E-03
       555  1.000000E-01 -2.698940E-18 -4.905000E-03
       556  1.000000E-01 -7.987490E-19 -4.905000E-03
       557  1.000000E-01 -1.855382E-18 -4.905000E-03
       558  1.000000E-01 -2.311370E-18 -4.905000E-03
       559  1.000000E-01 -3.240540E-18 -4.905000E-03
       560  1.000000E-01  1.499815E-18 -4.905000E-03
       561  1.000000E-01 -8.054368E-19 -4.905000E-03
       562  1.000000E-01 -4.153577E-18 -4.905000E-03
       563  1.000000E-01 -2.804616E-18 -4.905000E-03
       564  1.000000E-01  1.342871E-18 -4.905000E-03