
 displacements (vx,vy,vz) for set NALL and time  0.1000000E+01

         1  0.000000E+00  0.000000E+00  0.000000E+00
         2  0.000000E+00  0.000000E+00  0.000000E+00
         3  0.000000E+00  0.000000E+00  0.000000E+00
         4  0.000000E+00  0.000000E+00  0.000000E+00
         5 -5.532218E-04 -2.442154E-03  7.986647E-03
         6  5.532218E-04 -2.442154E-03  7.986647E-03
         7  0.000000E+00  0.000000E+00  0.000000E+00
         8  0.000000E+00  0.000000E+00  0.000000E+00
         9  0.000000E+00  0.000000E+00  0.000000E+00
        10  0.000000E+00  0.000000E+00  0.000000E+00
        11  0.000000E+00  0.000000E+00  0.000000E+00
        12  0.000000E+00  0.000000E+00  0.000000E+00
        13  0.000000E+00  0.000000E+00  0.000000E+00
        14  0.000000E+00  0.000000E+00  0.000000E+00
        15  0.000000E+00  0.000000E+00  0.000000E+00
        16  0.000000E+00  0.000000E+00  0.000000E+00
        17  0.000000E+00  0.000000E+00  0.000000E+00
        18  0.000000E+00  0.000000E+00  0.000000E+00
        19  0.000000E+00  0.000000E+00  0.000000E+00
        20  0.000000E+00  0.000000E+00  0.000000E+00
        21 -2.616469E-04 -2.473852E-03  8.001155E-03
        22 -1.778539E-17 -2.444877E-03  7.966104E-03
        23  2.616469E-04 -2.473852E-03  8.001155E-03
        24  5.185260E-04 -2.099547E-03  6.640965E-03
        25  5.097682E-04 -1.757988E-03  5.317725E-03
        26  4.188002E-04 -9.862883E-04  3.360500E-03
        27  0.000000E+00  0.000000E+00  0.000000E+00
        28  0.000000E+00  0.000000E+00  0.000000E+00
        29  0.000000E+00  0.000000E+00  0.000000E+00
        30 -4.188002E-04 -9.862883E-04  3.360500E-03
        31 -5.097682E-04 -1.757988E-03  5.317725E-03
        32 -5.185260E-04 -2.099547E-03  6.640965E-03
        33  8.977444E-04 -1.063748E-03 -4.044957E-05
        34  6.468777E-04 -1.514108E-03  1.676222E-06
        35  7.729799E-04 -2.651639E-03  2.877995E-06
        36  7.036925E-04 -3.801683E-03  1.400873E-04
        37  7.064976E-04 -5.166455E-03  3.395937E-04
        38  6.692031E-04 -6.516205E-03  6.406901E-04
        39  6.502335E-04 -7.837009E-03  1.029263E-03
        40  6.186721E-04 -8.994124E-03  1.509808E-03
        41  5.953041E-04 -9.931414E-03  2.080885E-03
        42  5.640001E-04 -1.052663E-02  2.744541E-03
        43  5.446874E-04 -1.072138E-02  3.491872E-03
        44  5.113862E-04 -1.037928E-02  4.332693E-03
        45  4.891066E-04 -9.509252E-03  5.239684E-03
        46  4.338727E-04 -7.993838E-03  6.257319E-03
        47  5.333577E-04 -5.390579E-03  7.318743E-03
        48 -5.333577E-04 -5.390579E-03  7.318743E-03
        49 -4.338727E-04 -7.993838E-03  6.257319E-03
        50 -4.891066E-04 -9.509252E-03  5.239684E-03
        51 -5.113862E-04 -1.037928E-02  4.332693E-03
        52 -5.446874E-04 -1.072138E-02  3.491872E-03
        53 -5.640001E-04 -1.052663E-02  2.744541E-03
        54 -5.953041E-04 -9.931414E-03  2.080885E-03
        55 -6.186721E-04 -8.994124E-03  1.509808E-03
        56 -6.502335E-04 -7.837009E-03  1.029263E-03
        57 -6.692031E-04 -6.516205E-03  6.406901E-04
        58 -7.064976E-04 -5.166455E-03  3.395937E-04
        59 -7.036925E-04 -3.801683E-03  1.400873E-04
        60 -7.729799E-04 -2.651639E-03  2.877995E-06
        61 -6.468777E-04 -1.514108E-03  1.676222E-06
        62 -8.977444E-04 -1.063748E-03 -4.044957E-05
        63  6.383664E-04  4.718022E-04  7.789994E-04
        64  5.052200E-04 -3.633243E-04  1.528924E-03
        65  6.400358E-04 -1.240825E-03  2.056765E-03
        66  6.348947E-04 -2.465837E-03  2.537868E-03
        67  6.835946E-04 -3.779323E-03  2.896465E-03
        68  7.045560E-04 -5.146333E-03  3.180010E-03
        69  7.366259E-04 -6.453908E-03  3.367202E-03
        70  7.600102E-04 -7.615203E-03  3.465921E-03
        71  7.900544E-04 -8.543523E-03  3.481494E-03
        72  8.185247E-04 -9.151647E-03  3.405178E-03
        73  8.441523E-04 -9.342553E-03  3.217627E-03
        74  8.389981E-04 -8.985819E-03  2.930946E-03
        75  9.023349E-04 -8.086090E-03  2.684259E-03
        76  8.537939E-04 -6.502058E-03  2.296559E-03
        77  1.083536E-03 -4.472761E-03  1.481691E-03
        78 -6.383664E-04  4.718022E-04  7.789994E-04
        79 -5.052200E-04 -3.633243E-04  1.528924E-03
        80 -6.400358E-04 -1.240825E-03  2.056765E-03
        81 -6.348947E-04 -2.465837E-03  2.537868E-03
        82 -6.835946E-04 -3.779323E-03  2.896465E-03
        83 -7.045560E-04 -5.146333E-03  3.180010E-03
        84 -7.366259E-04 -6.453908E-03  3.367202E-03
        85 -7.600102E-04 -7.615203E-03  3.465921E-03
        86 -7.900544E-04 -8.543523E-03  3.481494E-03
        87 -8.185247E-04 -9.151647E-03  3.405178E-03
        88 -8.441523E-04 -9.342553E-03  3.217627E-03
        89 -8.389981E-04 -8.985819E-03  2.930946E-03
        90 -9.023349E-04 -8.086090E-03  2.684259E-03
        91 -8.537939E-04 -6.502058E-03  2.296559E-03
        92 -1.083536E-03 -4.472761E-03  1.481691E-03
        93  0.000000E+00  0.000000E+00  0.000000E+00
        94  0.000000E+00  0.000000E+00  0.000000E+00
        95  0.000000E+00  0.000000E+00  0.000000E+00
        96  0.000000E+00  0.000000E+00  0.000000E+00
        97  0.000000E+00  0.000000E+00  0.000000E+00
        98 -1.103138E-17 -2.073447E-03  6.601970E-03
        99 -2.649236E-04 -1.697999E-03  5.205592E-03
       100 -1.605591E-19 -1.689041E-03  5.224151E-03
       101  2.649236E-04 -1.697999E-03  5.205592E-03
       102  4.044461E-18 -9.552845E-04  3.138546E-03
       103 -7.750276E-19 -1.119383E-03  8.024778E-05
       104 -3.252320E-04 -1.564877E-03 -2.715994E-05
       105 -2.203089E-18 -1.586931E-03 -6.437135E-05
       106  3.252320E-04 -1.564877E-03 -2.715994E-05
       107 -4.090550E-18 -2.669509E-03  8.474827E-06
       108 -3.505045E-04 -3.825337E-03  1.254049E-04
       109 -5.627101E-18 -3.841409E-03  1.189587E-04
       110  3.505045E-04 -3.825337E-03  1.254049E-04
       111 -7.960840E-18 -5.165960E-03  3.372516E-04
       112 -3.348627E-04 -6.514197E-03  6.335452E-04
       113 -9.063253E-18 -6.516019E-03  6.322999E-04
       114  3.348627E-04 -6.514197E-03  6.335452E-04
       115 -1.070999E-17 -7.813442E-03  1.023643E-03
       116 -3.091141E-04 -8.969077E-03  1.503482E-03
       117 -1.247900E-17 -8.961296E-03  1.504134E-03
       118  3.091141E-04 -8.969077E-03  1.503482E-03
       119 -1.317753E-17 -9.881875E-03  2.075175E-03
       120 -2.825157E-04 -1.047897E-02  2.739166E-03
       121 -1.230329E-17 -1.046464E-02  2.740134E-03
       122  2.825157E-04 -1.047897E-02  2.739166E-03
       123 -1.529994E-17 -1.064604E-02  3.484295E-03
       124 -2.540823E-04 -1.031920E-02  4.327989E-03
       125 -1.889073E-17 -1.029654E-02  4.330248E-03
       126  2.540823E-04 -1.031920E-02  4.327989E-03
       127 -1.760328E-17 -9.402950E-03  5.236237E-03
       128 -2.218209E-04 -7.886526E-03  6.255117E-03
       129 -1.872790E-17 -7.858839E-03  6.260361E-03
       130  2.218209E-04 -7.886526E-03  6.255117E-03
       131 -2.320713E-17 -5.330507E-03  7.294030E-03
       132  7.689974E-04 -2.181725E-04  4.814608E-04
       133  6.244778E-04 -1.205832E-03  3.808308E-04
       134  6.037555E-04 -9.260183E-04  7.149473E-04
       135  5.528291E-04 -6.259617E-04  1.112949E-03
       136  6.940903E-04 -1.902334E-03  1.039676E-03
       137  6.960208E-04 -3.461259E-03  7.465657E-04
       138  6.879524E-04 -3.130202E-03  1.325504E-03
       139  6.618372E-04 -2.795866E-03  1.916820E-03
       140  6.899735E-04 -4.463288E-03  1.621197E-03
       141  6.817528E-04 -6.183183E-03  1.288768E-03
       142  6.945140E-04 -5.846140E-03  1.907813E-03
       143  6.990767E-04 -5.497792E-03  2.528893E-03
       144  6.912081E-04 -7.164619E-03  2.198767E-03
       145  6.560457E-04 -8.678610E-03  2.014195E-03
       146  6.932591E-04 -8.345605E-03  2.487872E-03
       147  7.278621E-04 -7.988958E-03  2.965973E-03
       148  6.915180E-04 -9.284423E-03  2.779876E-03
       149  6.311884E-04 -1.023371E-02  2.920645E-03
       150  6.984469E-04 -9.909073E-03  3.074139E-03
       151  7.541165E-04 -9.547060E-03  3.211908E-03
       152  6.885436E-04 -1.009646E-02  3.356741E-03
       153  6.079346E-04 -1.011439E-02  4.007114E-03
       154  7.033969E-04 -9.804925E-03  3.639344E-03
       155  7.863442E-04 -9.414512E-03  3.323276E-03
       156  6.765546E-04 -8.896257E-03  3.961169E-03
       157  6.071502E-04 -7.736828E-03  5.257067E-03
       158  7.822988E-04 -7.431223E-03  4.253657E-03
       159  7.645464E-04 -7.000020E-03  3.073867E-03
       160  6.261322E-04 -4.909050E-03  4.595850E-03
       161 -2.856874E-19  4.180158E-04  8.824871E-04
       162  2.553076E-04 -3.889628E-04  1.520795E-03
       163 -7.275682E-19 -3.808842E-04  1.493934E-03
       164 -2.553076E-04 -3.889628E-04  1.520795E-03
       165 -1.733704E-19 -1.283606E-03  2.070406E-03
       166  3.161259E-04 -2.470419E-03  2.537376E-03
       167  7.994866E-19 -2.468314E-03  2.531816E-03
       168 -3.161259E-04 -2.470419E-03  2.537376E-03
       169  1.612232E-18 -3.789117E-03  2.905261E-03
       170  3.525705E-04 -5.136754E-03  3.185786E-03
       171  8.263625E-19 -5.130806E-03  3.183651E-03
       172 -3.525705E-04 -5.136754E-03  3.185786E-03
       173  4.530369E-19 -6.434479E-03  3.373493E-03
       174  3.798301E-04 -7.586934E-03  3.471520E-03
       175 -1.729552E-19 -7.575281E-03  3.471311E-03
       176 -3.798301E-04 -7.586934E-03  3.471520E-03
       177  3.684117E-18 -8.497402E-03  3.487096E-03
       178  4.095066E-04 -9.095785E-03  3.413257E-03
       179  3.269732E-18 -9.074947E-03  3.412489E-03
       180 -4.095066E-04 -9.095785E-03  3.413257E-03
       181  3.597720E-18 -9.276917E-03  3.222677E-03
       182  4.184293E-04 -8.915100E-03  2.943155E-03
       183  5.653945E-18 -8.875659E-03  2.955115E-03
       184 -4.184293E-04 -8.915100E-03  2.943155E-03
       185  4.957176E-18 -8.005687E-03  2.667495E-03
       186  4.271339E-04 -6.349826E-03  2.329886E-03
       187  3.462988E-18 -6.293407E-03  2.355204E-03
       188 -4.271339E-04 -6.349826E-03  2.329886E-03
       189  3.194036E-18 -4.363887E-03  1.401913E-03
       190 -7.689974E-04 -2.181725E-04  4.814608E-04
       191 -5.528291E-04 -6.259617E-04  1.112949E-03
       192 -6.037555E-04 -9.260183E-04  7.149473E-04
       193 -6.244778E-04 -1.205832E-03  3.808308E-04
       194 -6.940903E-04 -1.902334E-03  1.039676E-03
       195 -6.618372E-04 -2.795866E-03  1.916820E-03
       196 -6.879524E-04 -3.130202E-03  1.325504E-03
       197 -6.960208E-04 -3.461259E-03  7.465657E-04
       198 -6.899735E-04 -4.463288E-03  1.621197E-03
       199 -6.990767E-04 -5.497792E-03  2.528893E-03
       200 -6.945140E-04 -5.846140E-03  1.907813E-03
       201 -6.817528E-04 -6.183183E-03  1.288768E-03
       202 -6.912081E-04 -7.164619E-03  2.198767E-03
       203 -7.278621E-04 -7.988958E-03  2.965973E-03
       204 -6.932591E-04 -8.345605E-03  2.487872E-03
       205 -6.560457E-04 -8.678610E-03  2.014195E-03
       206 -6.915180E-04 -9.284423E-03  2.779876E-03
       207 -7.541165E-04 -9.547060E-03  3.211908E-03
       208 -6.984469E-04 -9.909073E-03  3.074139E-03
       209 -6.311884E-04 -1.023371E-02  2.920645E-03
       210 -6.885436E-04 -1.009646E-02  3.356741E-03
       211 -7.863442E-04 -9.414512E-03  3.323276E-03
       212 -7.033969E-04 -9.804925E-03  3.639344E-03
       213 -6.079346E-04 -1.011439E-02  4.007114E-03
       214 -6.765546E-04 -8.896257E-03  3.961169E-03
       215 -7.645464E-04 -7.000020E-03  3.073867E-03
       216 -7.822988E-04 -7.431223E-03  4.253657E-03
       217 -6.071502E-04 -7.736828E-03  5.257067E-03
       218 -6.261322E-04 -4.909050E-03  4.595850E-03
       219 -3.806750E-19 -2.712862E-04  5.994376E-04
       220 -1.884308E-18 -1.260408E-03  3.168528E-04
       221 -3.023116E-04 -9.626058E-04  6.923204E-04
       222 -1.520282E-18 -9.672025E-04  6.573615E-04
       223  3.023116E-04 -9.626058E-04  6.923204E-04
       224 -9.668847E-19 -6.565245E-04  1.067611E-03
       225 -1.953798E-18 -1.934523E-03  1.048865E-03
       226 -4.032320E-18 -3.490498E-03  7.292946E-04
       227 -3.430093E-04 -3.142564E-03  1.321039E-03
       228 -3.065412E-18 -3.147962E-03  1.317500E-03
       229  3.430093E-04 -3.142564E-03  1.321039E-03
       230 -1.394664E-18 -2.805765E-03  1.913103E-03
       231 -3.164693E-18 -4.468939E-03  1.620894E-03
       232 -6.891306E-18 -6.178728E-03  1.282198E-03
       233 -3.473683E-04 -5.840252E-03  1.908780E-03
       234 -4.360785E-18 -5.837876E-03  1.908976E-03
       235  3.473683E-04 -5.840252E-03  1.908780E-03
       236 -2.154395E-18 -5.486004E-03  2.534206E-03
       237 -4.930321E-18 -7.142561E-03  2.198230E-03
       238 -7.003536E-18 -8.645263E-03  2.008205E-03
       239 -3.465520E-04 -8.319719E-03  2.487482E-03
       240 -3.718951E-18 -8.311429E-03  2.487824E-03
       241  3.465520E-04 -8.319719E-03  2.487482E-03
       242 -1.547867E-18 -7.951909E-03  2.971004E-03
       243 -4.555943E-18 -9.234880E-03  2.780628E-03
       244 -1.056540E-17 -1.017263E-02  2.914133E-03
       245 -3.493258E-04 -9.863423E-03  3.073255E-03
       246 -5.185627E-18 -9.849451E-03  3.069847E-03
       247  3.493258E-04 -9.863423E-03  3.073255E-03
       248 -2.374065E-18 -9.478763E-03  3.218839E-03
       249 -5.614796E-18 -1.001909E-02  3.360296E-03
       250 -1.187452E-17 -1.002977E-02  3.996358E-03
       251 -3.518104E-04 -9.740268E-03  3.630863E-03
       252 -6.561283E-18 -9.717700E-03  3.630059E-03
       253  3.518104E-04 -9.740268E-03  3.630863E-03
       254 -6.343747E-19 -9.316580E-03  3.323027E-03
       255 -6.197436E-18 -8.798229E-03  3.967946E-03
       256 -1.261920E-17 -7.604585E-03  5.253702E-03
       257 -3.903429E-04 -7.336647E-03  4.258967E-03
       258 -7.921889E-18 -7.302883E-03  4.238169E-03
       259  3.903429E-04 -7.336647E-03  4.258967E-03
       260 -2.582816E-18 -6.830734E-03  3.139345E-03
       261 -5.369981E-18 -4.818996E-03  4.564236E-03

 stresses (elem, integ.pnt.,sxx,syy,szz,sxy,sxz,syz) for set EALL and time  0.1000000E+01

         1   1 -1.984305E+02 -1.993812E+02 -3.251460E+02  4.971090E+00 -1.068669E+02 -1.054289E+02
         1   2 -1.781323E+02 -1.793978E+02 -2.786168E+02 -5.312085E-01 -1.883605E+01 -1.112157E+02
         1   3 -1.515777E+02 -1.425934E+02 -1.618406E+02  4.337705E+00 -9.654841E+01 -2.254091E+01
         1   4 -1.322933E+02 -1.238948E+02 -1.164263E+02 -7.452152E-01 -1.633618E+01 -2.807033E+01
         1   5  8.171619E+01  7.959243E+01 -1.823698E+02 -1.190174E+00  4.978613E+01  3.845000E+01
         1   6  5.845779E+01  5.843898E+01 -2.460370E+02 -2.507448E+00  1.742246E+01  3.764146E+01
         1   7  5.865551E+01  5.846401E+01 -1.548437E+02 -3.873317E-01  4.286224E+01 -5.893177E+00
         1   8  3.353900E+01  3.470686E+01 -2.181757E+02 -8.384305E-01  1.531422E+01 -4.265277E+00
         2   1 -1.781323E+02 -1.793978E+02 -2.786168E+02  5.312085E-01  1.883605E+01 -1.112157E+02
         2   2 -1.984305E+02 -1.993812E+02 -3.251460E+02 -4.971090E+00  1.068669E+02 -1.054289E+02
         2   3 -1.322933E+02 -1.238948E+02 -1.164263E+02  7.452152E-01  1.633618E+01 -2.807033E+01
         2   4 -1.515777E+02 -1.425934E+02 -1.618406E+02 -4.337705E+00  9.654841E+01 -2.254091E+01
         2   5  5.845779E+01  5.843898E+01 -2.460370E+02  2.507448E+00 -1.742246E+01  3.764146E+01
         2   6  8.171619E+01  7.959243E+01 -1.823698E+02  1.190174E+00 -4.978613E+01  3.845000E+01
         2   7  3.353900E+01  3.470686E+01 -2.181757E+02  8.384305E-01 -1.531422E+01 -4.265277E+00
         2   8  5.865551E+01  5.846401E+01 -1.548437E+02  3.873317E-01 -4.286224E+01 -5.893177E+00
         3   1 -1.510875E+02 -1.587140E+02 -9.773932E+01  3.278814E+00 -8.922192E+01  9.639747E+00
         3   2 -1.322420E+02 -1.406651E+02 -5.348403E+01 -1.229325E+00 -1.481364E+01  3.026280E+00
         3   3 -1.414128E+02 -1.404941E+02 -2.194536E+01  2.573023E+00 -7.985444E+01  8.117775E+01
         3   4 -1.231277E+02 -1.232644E+02  1.935657E+01 -1.588453E+00 -1.338249E+01  7.436646E+01
         3   5  5.028844E+01  4.865286E+01 -1.016124E+02  3.687882E+00  3.963914E+01 -3.632219E+01
         3   6  2.679235E+01  2.562186E+01 -1.613287E+02  6.598284E-01  1.429744E+01 -3.399786E+01
         3   7  6.553103E+01  6.763485E+01  4.021417E+01  3.726647E+00  3.694309E+01 -4.856676E+01
         3   8  4.865405E+01  5.048076E+01 -1.013854E+01  1.561211E+00  1.288238E+01 -4.514588E+01
         4   1 -1.322420E+02 -1.406651E+02 -5.348403E+01  1.229325E+00  1.481364E+01  3.026280E+00
         4   2 -1.510875E+02 -1.587140E+02 -9.773932E+01 -3.278814E+00  8.922192E+01  9.639747E+00
         4   3 -1.231277E+02 -1.232644E+02  1.935657E+01  1.588453E+00  1.338249E+01  7.436646E+01
         4   4 -1.414128E+02 -1.404941E+02 -2.194536E+01 -2.573023E+00  7.985444E+01  8.117775E+01
         4   5  2.679235E+01  2.562186E+01 -1.613287E+02 -6.598284E-01 -1.429744E+01 -3.399786E+01
         4   6  5.028844E+01  4.865286E+01 -1.016124E+02 -3.687882E+00 -3.963914E+01 -3.632219E+01
         4   7  4.865405E+01  5.048076E+01 -1.013854E+01 -1.561211E+00 -1.288238E+01 -4.514588E+01
         4   8  6.553103E+01  6.763485E+01  4.021417E+01 -3.726647E+00 -3.694309E+01 -4.856676E+01
         5   1 -3.889621E+01 -3.608546E+01 -2.429046E+02 -1.560123E+00 -1.947814E+01 -2.674936E+01
         5   2 -2.473671E+01 -2.212945E+01 -2.156929E+02  9.598050E-01 -9.363274E+00 -2.228295E+01
         5   3 -2.825922E+01 -3.162423E+01 -1.571864E+02 -1.996451E+00 -1.543203E+01 -2.613890E+01
         5   4 -1.723779E+01 -2.150002E+01 -1.328610E+02  1.326987E+00 -8.640108E+00 -2.349920E+01
         5   5  1.441499E+01  1.532332E+01 -1.731803E+02  1.159520E+00  8.649796E+00  1.421587E+00
         5   6  7.696460E+00  9.044634E+00 -1.848710E+02  5.971791E-01  3.448547E+00 -2.845536E-01
         5   7  8.342001E+00  9.426097E+00 -1.435041E+02  8.179410E-01  4.793732E+00 -1.792340E+01
         5   8  2.414425E+00  3.812491E+00 -1.532722E+02  3.008936E-01  1.976379E+00 -1.622293E+01
         6   1 -2.473671E+01 -2.212945E+01 -2.156929E+02 -9.598050E-01  9.363274E+00 -2.228295E+01
         6   2 -3.889621E+01 -3.608546E+01 -2.429046E+02  1.560123E+00  1.947814E+01 -2.674936E+01
         6   3 -1.723779E+01 -2.150002E+01 -1.328610E+02 -1.326987E+00  8.640108E+00 -2.349920E+01
         6   4 -2.825922E+01 -3.162423E+01 -1.571864E+02  1.996451E+00  1.543203E+01 -2.613890E+01
         6   5  7.696460E+00  9.044634E+00 -1.848710E+02 -5.971791E-01 -3.448547E+00 -2.845536E-01
         6   6  1.441499E+01  1.532332E+01 -1.731803E+02 -1.159520E+00 -8.649796E+00  1.421587E+00
         6   7  2.414425E+00  3.812491E+00 -1.532722E+02 -3.008936E-01 -1.976379E+00 -1.622293E+01
         6   8  8.342001E+00  9.426097E+00 -1.435041E+02 -8.179410E-01 -4.793732E+00 -1.792340E+01
         7   1 -1.950665E+01 -1.444443E+01 -1.014349E+02 -1.526983E+00 -1.415655E+01 -8.440296E+00
         7   2 -8.450008E+00 -4.173174E+00 -7.809423E+01  1.313481E+00 -8.106020E+00 -6.851647E+00
         7   3 -3.399858E+01 -3.676865E+01 -6.412155E+01 -2.212909E+00 -1.570671E+01  8.068337E+00
         7   4 -2.134672E+01 -2.559751E+01 -4.272521E+01  1.431097E+00 -8.435612E+00  6.948332E+00
         7   5  6.025082E+00  4.471314E+00 -1.157964E+02 -2.455140E-01  4.288653E+00 -2.277493E+01
         7   6  6.896841E-01 -5.273760E-01 -1.244981E+02 -1.571955E-01  1.851569E+00 -2.003328E+01
         7   7  1.104593E+01  1.014932E+01 -6.550095E+01 -5.544412E-01  5.303649E+00 -1.291396E+01
         7   8  5.947450E+00  5.276617E+00 -7.428654E+01 -4.236840E-01  1.428668E+00 -9.740121E+00
         8   1 -8.450008E+00 -4.173174E+00 -7.809423E+01 -1.313481E+00  8.106020E+00 -6.851647E+00
         8   2 -1.950665E+01 -1.444443E+01 -1.014349E+02  1.526983E+00  1.415655E+01 -8.440296E+00
         8   3 -2.134672E+01 -2.559751E+01 -4.272521E+01 -1.431097E+00  8.435612E+00  6.948332E+00
         8   4 -3.399858E+01 -3.676865E+01 -6.412155E+01  2.212909E+00  1.570671E+01  8.068337E+00
         8   5  6.896841E-01 -5.273760E-01 -1.244981E+02  1.571955E-01 -1.851569E+00 -2.003328E+01
         8   6  6.025082E+00  4.471314E+00 -1.157964E+02  2.455140E-01 -4.288653E+00 -2.277493E+01
         8   7  5.947450E+00  5.276617E+00 -7.428654E+01  4.236840E-01 -1.428668E+00 -9.740121E+00
         8   8  1.104593E+01  1.014932E+01 -6.550095E+01  5.544412E-01 -5.303649E+00 -1.291396E+01
         9   1 -5.897626E+00 -7.316013E+00 -1.632302E+02 -1.045673E+00 -3.587489E+00 -1.215696E+01
         9   2 -5.294585E+00 -4.546529E+00 -1.578746E+02 -1.106488E+00 -8.121650E-01 -8.739077E+00
         9   3 -2.406331E+00 -4.525204E+00 -1.367497E+02 -4.629414E-01 -1.925588E+00 -1.935461E+01
         9   4 -2.183741E+00 -2.060425E+00 -1.333386E+02 -6.716533E-01 -9.129091E-01 -1.643392E+01
         9   5  2.387736E+00  2.783368E+00 -1.219847E+02  7.090965E-01  2.308878E+00 -5.524945E+00
         9   6  8.911182E-01  8.695069E-01 -1.244993E+02  4.147593E-01  1.273466E+00 -5.719829E+00
         9   7  8.597964E-01  1.672798E+00 -1.279828E+02  3.916562E-01  1.257597E-01 -1.898464E+01
         9   8 -2.095060E-02  3.359592E-01 -1.288817E+02  1.342772E-01  5.200026E-02 -1.699036E+01
        10   1 -5.294585E+00 -4.546529E+00 -1.578746E+02  1.106488E+00  8.121650E-01 -8.739077E+00
        10   2 -5.897626E+00 -7.316013E+00 -1.632302E+02  1.045673E+00  3.587489E+00 -1.215696E+01
        10   3 -2.183741E+00 -2.060425E+00 -1.333386E+02  6.716533E-01  9.129091E-01 -1.643392E+01
        10   4 -2.406331E+00 -4.525204E+00 -1.367497E+02  4.629414E-01  1.925588E+00 -1.935461E+01
        10   5  8.911182E-01  8.695069E-01 -1.244993E+02 -4.147593E-01 -1.273466E+00 -5.719829E+00
        10   6  2.387736E+00  2.783368E+00 -1.219847E+02 -7.090965E-01 -2.308878E+00 -5.524945E+00
        10   7 -2.095060E-02  3.359592E-01 -1.288817E+02 -1.342772E-01 -5.200026E-02 -1.699036E+01
        10   8  8.597964E-01  1.672798E+00 -1.279828E+02 -3.916562E-01 -1.257597E-01 -1.898464E+01
        11   1 -2.030708E+00 -3.754136E+00 -1.213105E+02  9.145150E-01 -1.498160E+00 -1.684845E+01
        11   2 -2.212637E+00 -2.077945E+00 -1.184876E+02 -5.124821E-02 -6.765846E-01 -1.486086E+01
        11   3 -3.280390E+00 -1.679749E+00 -1.040765E+02  1.393995E+00 -3.823986E+00 -4.849718E+00
        11   4 -3.261375E+00  2.832257E-01 -9.996762E+01  2.702948E-01 -1.709049E+00 -5.424778E+00
        11   5 -4.825174E-02 -1.516578E-01 -1.316699E+02 -2.410982E-01  1.088879E-01 -2.034681E+01
        11   6 -6.225569E-01 -8.463896E-01 -1.322301E+02 -1.649797E-01  1.039387E-01 -1.748412E+01
        11   7  1.683821E+00  1.492533E+00 -1.329126E+02 -5.065730E-01  4.481280E-01 -7.925674E+00
        11   8  6.081810E-01  2.679752E-01 -1.348628E+02 -3.470817E-01 -2.837524E-01 -5.609555E+00
        12   1 -2.212637E+00 -2.077945E+00 -1.184876E+02  5.124821E-02  6.765846E-01 -1.486086E+01
        12   2 -2.030708E+00 -3.754136E+00 -1.213105E+02 -9.145150E-01  1.498160E+00 -1.684845E+01
        12   3 -3.261375E+00  2.832257E-01 -9.996762E+01 -2.702948E-01  1.709049E+00 -5.424778E+00
        12   4 -3.280390E+00 -1.679749E+00 -1.040765E+02 -1.393995E+00  3.823986E+00 -4.849718E+00
        12   5 -6.225569E-01 -8.463896E-01 -1.322301E+02  1.649797E-01 -1.039387E-01 -1.748412E+01
        12   6 -4.825174E-02 -1.516578E-01 -1.316699E+02  2.410982E-01 -1.088879E-01 -2.034681E+01
        12   7  6.081810E-01  2.679752E-01 -1.348628E+02  3.470817E-01  2.837524E-01 -5.609555E+00
        12   8  1.683821E+00  1.492533E+00 -1.329126E+02  5.065730E-01 -4.481280E-01 -7.925674E+00
        13   1 -1.242560E+00 -1.248549E+00 -9.942017E+01 -5.222403E-01 -1.631001E-01 -8.650033E+00
        13   2 -2.182010E-01  8.701311E-02 -9.825176E+01 -2.327708E-01  2.203029E-01 -6.576713E+00
        13   3 -4.858575E-01 -9.980326E-01 -1.213121E+02 -3.440322E-01  1.449568E-01 -1.889489E+01
        13   4 -7.524668E-02 -3.265410E-01 -1.211981E+02  1.111723E-02 -1.208974E-01 -1.610066E+01
        13   5  5.046997E-01  4.527793E-01 -6.380084E+01  1.508314E-01  1.163102E+00 -6.539082E+00
        13   6 -3.775808E-03 -1.953914E-01 -6.418140E+01  1.948862E-01  8.560232E-01 -5.934297E+00
        13   7 -1.413501E-01 -4.675177E-02 -1.122680E+02  7.309707E-02 -2.893653E-01 -1.963780E+01
        13   8 -3.991628E-01 -4.534877E-01 -1.123640E+02  5.375013E-02 -7.823854E-02 -1.749723E+01
        14   1 -2.182010E-01  8.701311E-02 -9.825176E+01  2.327708E-01 -2.203029E-01 -6.576713E+00
        14   2 -1.242560E+00 -1.248549E+00 -9.942017E+01  5.222403E-01  1.631001E-01 -8.650033E+00
        14   3 -7.524668E-02 -3.265410E-01 -1.211981E+02 -1.111723E-02  1.208974E-01 -1.610066E+01
        14   4 -4.858575E-01 -9.980326E-01 -1.213121E+02  3.440322E-01 -1.449568E-01 -1.889489E+01
        14   5 -3.775808E-03 -1.953914E-01 -6.418140E+01 -1.948862E-01 -8.560232E-01 -5.934297E+00
        14   6  5.046997E-01  4.527793E-01 -6.380084E+01 -1.508314E-01 -1.163102E+00 -6.539082E+00
        14   7 -3.991628E-01 -4.534877E-01 -1.123640E+02 -5.375013E-02  7.823854E-02 -1.749723E+01
        14   8 -1.413501E-01 -4.675177E-02 -1.122680E+02 -7.309707E-02  2.893653E-01 -1.963780E+01
        15   1  2.535278E-01  3.786369E-01 -1.368402E+02  1.517302E-01  2.879722E-01 -1.814487E+01
        15   2  4.533636E-01  5.493403E-01 -1.369746E+02  2.077324E-01 -4.418366E-03 -1.599842E+01
        15   3 -1.109034E+00 -1.365312E+00 -1.609542E+02  1.662581E-01 -1.158635E+00 -7.291126E+00
        15   4 -2.849109E-01 -5.985575E-01 -1.600607E+02  2.853811E-01 -9.999725E-01 -6.955621E+00
        15   5  4.777929E-01  7.294775E-01 -1.464699E+02 -4.033099E-01 -3.350711E-01 -1.861192E+01
        15   6  3.572888E-01  6.563808E-01 -1.465012E+02 -6.762976E-02 -1.391977E-02 -1.614056E+01
        15   7  2.452842E-01 -5.662072E-02 -1.944766E+02  3.064384E-02 -4.679652E-01 -8.085581E+00
        15   8 -7.207807E-02 -2.753100E-01 -1.948716E+02  1.492260E-01 -4.936130E-01 -6.154605E+00
        16   1  4.533636E-01  5.493403E-01 -1.369746E+02 -2.077324E-01  4.418366E-03 -1.599842E+01
        16   2  2.535278E-01  3.786369E-01 -1.368402E+02 -1.517302E-01 -2.879722E-01 -1.814487E+01
        16   3 -2.849109E-01 -5.985575E-01 -1.600607E+02 -2.853811E-01  9.999725E-01 -6.955621E+00
        16   4 -1.109034E+00 -1.365312E+00 -1.609542E+02 -1.662581E-01  1.158635E+00 -7.291126E+00
        16   5  3.572888E-01  6.563808E-01 -1.465012E+02  6.762976E-02  1.391977E-02 -1.614056E+01
        16   6  4.777929E-01  7.294775E-01 -1.464699E+02  4.033099E-01  3.350711E-01 -1.861192E+01
        16   7 -7.207807E-02 -2.753100E-01 -1.948716E+02 -1.492260E-01  4.936130E-01 -6.154605E+00
        16   8  2.452842E-01 -5.662072E-02 -1.944766E+02 -3.064384E-02  4.679652E-01 -8.085581E+00
        17   1 -2.111793E-02  4.496424E-01 -3.910574E+01 -3.089290E-02  2.684191E-01 -8.505827E+00
        17   2 -1.460869E-02  6.807810E-01 -3.891913E+01 -9.573880E-02  5.748410E-01 -6.919180E+00
        17   3  1.419487E-01  7.022655E-01 -1.047310E+02  7.978414E-02  1.626146E-01 -1.878589E+01
        17   4  3.467683E-01  1.164743E+00 -1.042164E+02  7.676174E-03  9.866813E-02 -1.600999E+01
        17   5 -7.549934E-01 -1.425813E+00 -4.508568E+00 -2.194526E-02  1.121045E+00 -7.347388E+00
        17   6 -6.462759E-02 -1.335478E+00 -4.209656E+00 -2.463345E-01  6.921993E-01 -6.419106E+00
        17   7  6.523775E-01 -4.583782E-01 -9.524037E+01 -2.722861E-01 -5.282268E-01 -1.900758E+01
        17   8  2.256764E-01 -1.386035E+00 -9.654423E+01 -2.307852E-01 -6.212975E-01 -1.719289E+01
        18   1 -1.460869E-02  6.807810E-01 -3.891913E+01  9.573880E-02 -5.748410E-01 -6.919180E+00
        18   2 -2.111793E-02  4.496424E-01 -3.910574E+01  3.089290E-02 -2.684191E-01 -8.505827E+00
        18   3  3.467683E-01  1.164743E+00 -1.042164E+02 -7.676174E-03 -9.866813E-02 -1.600999E+01
        18   4  1.419487E-01  7.022655E-01 -1.047310E+02 -7.978414E-02 -1.626146E-01 -1.878589E+01
        18   5 -6.462759E-02 -1.335478E+00 -4.209656E+00  2.463345E-01 -6.921993E-01 -6.419106E+00
        18   6 -7.549934E-01 -1.425813E+00 -4.508568E+00  2.194526E-02 -1.121045E+00 -7.347388E+00
        18   7  2.256764E-01 -1.386035E+00 -9.654423E+01  2.307852E-01  6.212975E-01 -1.719289E+01
        18   8  6.523775E-01 -4.583782E-01 -9.524037E+01  2.722861E-01  5.282268E-01 -1.900758E+01
        19   1 -5.847935E-01  9.655530E-02 -1.547258E+02  6.967897E-02  5.180805E-01 -1.834304E+01
        19   2 -6.699112E-01 -2.346500E-01 -1.543564E+02  4.680612E-03  2.782386E-01 -1.604951E+01
        19   3 -9.627931E-02  6.935416E-01 -2.194444E+02 -6.947470E-02 -7.821838E-01 -7.183135E+00
        19   4 -3.660575E-01  1.967190E-01 -2.193470E+02 -1.432849E-01 -6.682864E-01 -6.800109E+00
        19   5 -3.502632E-01  1.370015E-01 -1.638197E+02  1.305344E+00 -1.703036E-01 -2.322335E+01
        19   6  1.590478E-01  1.457234E+00 -1.639759E+02  1.840420E-01 -4.055205E-01 -2.011146E+01
        19   7  3.945170E-01  2.296470E+00 -2.537872E+02  1.397037E-01 -2.869803E-01 -3.789190E+00
        19   8  1.557961E+00  4.099538E+00 -2.525861E+02 -1.333749E-01 -7.749182E-01 -1.510191E+00
        20   1 -6.699112E-01 -2.346500E-01 -1.543564E+02 -4.680612E-03 -2.782386E-01 -1.604951E+01
        20   2 -5.847935E-01  9.655530E-02 -1.547258E+02 -6.967897E-02 -5.180805E-01 -1.834304E+01
        20   3 -3.660575E-01  1.967190E-01 -2.193470E+02  1.432849E-01  6.682864E-01 -6.800109E+00
        20   4 -9.627931E-02  6.935416E-01 -2.194444E+02  6.947470E-02  7.821838E-01 -7.183135E+00
        20   5  1.590478E-01  1.457234E+00 -1.639759E+02 -1.840420E-01  4.055205E-01 -2.011146E+01
        20   6 -3.502632E-01  1.370015E-01 -1.638197E+02 -1.305344E+00  1.703036E-01 -2.322335E+01
        20   7  1.557961E+00  4.099538E+00 -2.525861E+02  1.333749E-01  7.749182E-01 -1.510191E+00
        20   8  3.945170E-01  2.296470E+00 -2.537872E+02 -1.397037E-01  2.869803E-01 -3.789190E+00
        21   1  4.844551E-01  1.213198E+00  1.992931E+01  3.481384E-01  1.684880E-01 -8.691630E+00