
 displacements (vx,vy,vz) for set NALL and time  0.1000000E+01

         1  4.300901E-04  2.625870E-02  5.895894E-03
         2  2.753032E-04  2.630504E-02  5.879266E-03
         3  1.498660E-04  1.566363E-02  4.750587E-03
         4  3.462165E-04  1.552208E-02  4.792845E-03
         5  3.047918E-04  2.618636E-02  7.361583E-05
         6  3.067083E-04  2.622967E-02  1.822542E-06
         7  1.861234E-04  1.552993E-02 -4.288373E-06
         8  1.637989E-04  1.545771E-02  5.463991E-05
         9  3.523753E-04  2.630195E-02  5.882526E-03
        10  2.476889E-04  2.067617E-02  5.321483E-03
        11  2.479391E-04  1.561140E-02  4.774597E-03
        12  3.955915E-04  2.062932E-02  5.383116E-03
        13  3.667595E-04  2.620447E-02  2.977971E-03
        14  2.935887E-04  2.624737E-02  2.924398E-03
        15  1.636200E-04  1.557422E-02  2.366273E-03
        16  2.570803E-04  1.546527E-02  2.415495E-03
        17  3.054224E-04  2.622772E-02  4.000753E-05
        18  2.080573E-04  2.063434E-02 -2.497281E-07
        19  1.745518E-04  1.551580E-02  2.608959E-05
        20  2.347583E-04  2.053033E-02  6.289132E-05
        21  6.348075E-05  7.343096E-03  3.401323E-03
        22  2.936221E-04  7.216042E-03  3.439337E-03
        23  7.609039E-05  7.244878E-03  3.272718E-06
        24  7.349068E-05  7.140954E-03  3.732192E-05
        25  1.189002E-04  1.114852E-02  4.106809E-03
        26  1.783856E-04  7.306953E-03  3.423461E-03
        27  3.155457E-04  1.106568E-02  4.143404E-03
        28  7.206430E-05  7.268745E-03  1.693973E-03
        29  1.830101E-04  7.154081E-03  1.725772E-03
        30  1.187423E-04  1.104740E-02 -1.886217E-06
        31  7.446092E-05  7.218451E-03  1.966570E-05
        32  1.204673E-04  1.094729E-02  4.900078E-05
        33  1.356215E-05  1.990159E-03  1.814316E-03
        34  2.357715E-04  1.858580E-03  1.808506E-03
        35  2.039108E-05  1.912436E-03  5.937774E-07
        36  1.770983E-05  1.796924E-03  1.734214E-05
        37  4.302784E-05  4.286845E-03  2.626710E-03
        38  1.230022E-04  1.964355E-03  1.810517E-03
        39  2.840934E-04  4.177321E-03  2.654364E-03
        40  1.684676E-05  1.907769E-03  8.970070E-04
        41  1.282825E-04  1.785149E-03  9.049596E-04
        42  3.820437E-05  4.153999E-03 -5.811703E-07
        43  1.858411E-05  1.896117E-03  9.239729E-06
        44  4.315498E-05  4.030714E-03  2.877594E-05
        45  0.000000E+00  0.000000E+00  0.000000E+00
        46  0.000000E+00  0.000000E+00  0.000000E+00
        47  0.000000E+00  0.000000E+00  0.000000E+00
        48  0.000000E+00  0.000000E+00  0.000000E+00
        49  3.095117E-06  6.491742E-04  8.693642E-04
        50  0.000000E+00  0.000000E+00  0.000000E+00
        51  3.016882E-04  5.256189E-04  9.026253E-04
        52  0.000000E+00  0.000000E+00  0.000000E+00
        53  0.000000E+00  0.000000E+00  0.000000E+00
        54  4.108742E-06  4.657811E-04 -2.947168E-07
        55  0.000000E+00  0.000000E+00  0.000000E+00
        56  6.239563E-06  3.386724E-04  8.842770E-06
        57  1.796721E-04  2.625790E-02 -5.771114E-03
        58  3.306986E-04  2.630675E-02 -5.839338E-03
        59  1.573710E-04  1.563373E-02 -4.742788E-03
        60 -6.220624E-06  1.552291E-02 -4.678799E-03
        61  2.419042E-04  2.620331E-02 -2.839003E-03
        62  3.181786E-04  2.624965E-02 -2.913184E-03
        63  1.726407E-04  1.555796E-02 -2.366498E-03
        64  7.941286E-05  1.546786E-02 -2.301857E-03
        65  2.550898E-04  2.630142E-02 -5.810993E-03
        66  2.547714E-04  2.069120E-02 -5.315426E-03
        67  7.483582E-05  1.560066E-02 -4.714142E-03
        68  7.257968E-05  2.063055E-02 -5.244452E-03
        69  7.295290E-05  7.335588E-03 -3.407786E-03
        70 -1.402174E-04  7.217629E-03 -3.360553E-03
        71  7.482006E-05  7.265734E-03 -1.692908E-03
        72 -3.285089E-05  7.153833E-03 -1.650442E-03
        73  1.122231E-04  1.115634E-02 -4.102310E-03
        74 -3.373347E-05  7.302407E-03 -3.386485E-03
        75 -8.663697E-05  1.105141E-02 -4.052987E-03
        76  1.506841E-05  1.987515E-03 -1.814610E-03
        77 -1.982469E-04  1.855007E-03 -1.769731E-03
        78  1.818663E-05  1.906203E-03 -8.971208E-04
        79 -9.082496E-05  1.783708E-03 -8.677533E-04
        80  4.115876E-05  4.288360E-03 -2.626638E-03
        81 -9.105974E-05  1.961618E-03 -1.791590E-03
        82 -2.030012E-04  4.171392E-03 -2.598240E-03
        83  0.000000E+00  0.000000E+00  0.000000E+00
        84  0.000000E+00  0.000000E+00  0.000000E+00
        85  0.000000E+00  0.000000E+00  0.000000E+00
        86  0.000000E+00  0.000000E+00  0.000000E+00
        87  2.506299E-06  6.496616E-04 -8.683560E-04
        88  0.000000E+00  0.000000E+00  0.000000E+00
        89 -2.935109E-04  5.188139E-04 -8.857719E-04
        90  1.686895E-04  2.666076E-02  5.562782E-03
        91  7.621733E-05  1.553988E-02  4.737113E-03
        92  3.034009E-04  2.611179E-02 -1.552583E-06
        93  1.297349E-04  1.548835E-02 -7.522865E-05
        94  2.150347E-04  2.622007E-02  5.726083E-03
        95 -4.167418E-05  2.061405E-02  5.267520E-03
        96  1.121660E-04  1.556206E-02  4.727033E-03
        97  2.320718E-04  2.608459E-02  2.839569E-03
        98  1.012599E-04  1.542442E-02  2.294562E-03
        99  3.065824E-04  2.618744E-02 -7.621970E-06
       100  2.791523E-04  2.050350E-02 -9.361438E-05
       101  1.560489E-04  1.553530E-02 -3.458990E-05
       102 -1.276262E-04  7.173786E-03  3.341766E-03
       103  6.753977E-05  7.148620E-03 -3.766985E-05
       104 -8.503899E-05  1.109183E-02  4.047492E-03
       105 -3.250631E-05  7.299229E-03  3.381096E-03
       106 -2.895000E-05  7.153732E-03  1.649208E-03
       107  1.195960E-04  1.094280E-02 -3.479113E-05
       108  7.215028E-05  7.220670E-03 -1.910254E-05
       109 -1.906258E-04  1.853853E-03  1.773762E-03
       110  1.474897E-05  1.800742E-03 -1.999133E-05
       111 -2.116458E-04  4.170188E-03  2.599801E-03
       112 -8.783576E-05  1.958964E-03  1.791463E-03
       113 -8.857748E-05  1.780518E-03  8.663991E-04
       114  4.704170E-05  4.027401E-03 -3.048726E-05
       115  1.689430E-05  1.898515E-03 -9.168053E-06
       116  0.000000E+00  0.000000E+00  0.000000E+00
       117  0.000000E+00  0.000000E+00  0.000000E+00
       118 -2.933379E-04  5.224451E-04  8.868532E-04
       119  0.000000E+00  0.000000E+00  0.000000E+00
       120  0.000000E+00  0.000000E+00  0.000000E+00
       121  5.942729E-06  3.385834E-04 -8.037241E-06
       122  0.000000E+00  0.000000E+00  0.000000E+00
       123  4.824389E-04  2.620615E-02 -5.937237E-03
       124  3.593053E-04  1.555741E-02 -4.804052E-03
       125  3.924108E-04  2.614251E-02 -2.974624E-03
       126  2.471944E-04  1.549832E-02 -2.422043E-03
       127  4.056578E-04  2.627578E-02 -5.887148E-03
       128  4.032226E-04  2.059036E-02 -5.361783E-03
       129  2.589690E-04  1.561701E-02 -4.774199E-03
       130  2.977922E-04  7.211758E-03 -3.429507E-03
       131  1.815457E-04  7.155057E-03 -1.725358E-03
       132  3.105340E-04  1.106754E-02 -4.157006E-03
       133  1.844015E-04  7.299970E-03 -3.422368E-03
       134  2.352873E-04  1.859369E-03 -1.807270E-03
       135  1.268882E-04  1.787845E-03 -9.042134E-04
       136  2.841315E-04  4.177760E-03 -2.653156E-03
       137  1.238780E-04  1.963740E-03 -1.809994E-03
       138  0.000000E+00  0.000000E+00  0.000000E+00
       139  0.000000E+00  0.000000E+00  0.000000E+00
       140  3.016174E-04  5.262006E-04 -9.046036E-04
       141  0.000000E+00  0.000000E+00  0.000000E+00
       142  7.849217E-04  8.456272E-02  7.996781E-03
       143  8.304593E-04  8.441815E-02  7.897223E-03
       144  6.892094E-04  6.858246E-02  7.777910E-03
       145  7.330219E-04  6.862497E-02  7.842708E-03
       146  8.745633E-04  8.444737E-02  7.067315E-05
       147  8.718506E-04  8.438427E-02  1.202858E-07
       148  7.279999E-04  6.857009E-02 -3.079028E-07
       149  7.327310E-04  6.858720E-02  6.915294E-05
       150  8.093179E-04  8.445075E-02  7.952597E-03
       151  7.558670E-04  7.647541E-02  7.872782E-03
       152  7.104837E-04  6.861916E-02  7.812598E-03
       153  7.618413E-04  7.650802E-02  7.941261E-03
       154  8.501880E-04  8.449374E-02  4.006070E-03
       155  8.508792E-04  8.439999E-02  3.940385E-03
       156  7.090572E-04  6.857155E-02  3.880673E-03
       157  7.278566E-04  6.860411E-02  3.949783E-03
       158  8.732162E-04  8.442089E-02  3.468361E-05
       159  8.026709E-04  7.646075E-02 -6.729919E-07
       160  7.304207E-04  6.858223E-02  3.494186E-05
       161  8.012616E-04  7.650607E-02  7.078659E-05
       162  5.495767E-04  5.328814E-02  7.388721E-03
       163  6.168899E-04  5.331142E-02  7.461862E-03
       164  5.875765E-04  5.325448E-02  2.107407E-06
       165  5.912778E-04  5.325442E-02  7.047431E-05
       166  6.119967E-04  6.084656E-02  7.614254E-03
       167  5.833320E-04  5.330528E-02  7.427804E-03
       168  6.751170E-04  6.085357E-02  7.681539E-03
       169  5.675141E-04  5.326183E-02  3.687924E-03
       170  6.056933E-04  5.327221E-02  3.753614E-03
       171  6.629909E-04  6.081559E-02 -1.178838E-06
       172  5.892406E-04  5.326419E-02  3.538771E-05
       173  6.596289E-04  6.083629E-02  7.086453E-05
       174  4.167791E-04  3.897815E-02  6.754225E-03
       175  5.193867E-04  3.901176E-02  6.811882E-03
       176  4.289415E-04  3.896721E-02 -3.854187E-06
       177  4.525445E-04  3.893521E-02  6.701679E-05
       178  4.728701E-04  4.599594E-02  7.104087E-03
       179  4.677636E-04  3.901278E-02  6.786423E-03
       180  5.714177E-04  4.598269E-02  7.167090E-03
       181  4.243553E-04  3.895820E-02  3.366236E-03
       182  4.850601E-04  3.895955E-02  3.431131E-03
       183  5.154575E-04  4.594430E-02 -8.910726E-07
       184  4.412143E-04  3.896608E-02  3.288323E-05
       185  5.153257E-04  4.594121E-02  7.164418E-05
       186  2.753032E-04  2.630504E-02  5.879266E-03
       187  4.300901E-04  2.625870E-02  5.895894E-03
       188  3.067083E-04  2.622967E-02  1.822542E-06
       189  3.047918E-04  2.618636E-02  7.361583E-05
       190  3.096771E-04  3.245163E-02  6.332741E-03
       191  3.523753E-04  2.630195E-02  5.882526E-03
       192  4.636082E-04  3.240077E-02  6.392616E-03
       193  2.935887E-04  2.624737E-02  2.924398E-03
       194  3.667595E-04  2.620447E-02  2.977971E-03
       195  4.000851E-04  3.234164E-02 -4.702153E-06
       196  3.054224E-04  2.622772E-02  4.000753E-05
       197  3.758883E-04  3.234374E-02  6.785778E-05
       198  9.587259E-04  8.456048E-02 -7.854571E-03
       199  9.188507E-04  8.442084E-02 -7.901559E-03
       200  7.782280E-04  6.858514E-02 -7.778739E-03
       201  7.266782E-04  6.862345E-02 -7.700834E-03
       202  8.963387E-04  8.449303E-02 -3.865204E-03
       203  8.952900E-04  8.440106E-02 -3.941277E-03
       204  7.531746E-04  6.857302E-02 -3.882334E-03
       205  7.346590E-04  6.860291E-02 -3.808841E-03
       206  9.369108E-04  8.445114E-02 -7.882543E-03
       207  8.470037E-04  7.647429E-02 -7.873598E-03
       208  7.533278E-04  6.861942E-02 -7.742662E-03
       209  8.437133E-04  7.650902E-02 -7.801321E-03
       210  6.337167E-04  5.329290E-02 -7.394710E-03
       211  5.573240E-04  5.330613E-02 -7.318997E-03
       212  6.104920E-04  5.326404E-02 -3.687352E-03
       213  5.729919E-04  5.327051E-02 -3.613390E-03
       214  7.034011E-04  6.084552E-02 -7.615377E-03
       215  5.950800E-04  5.330604E-02 -7.358731E-03
       216  6.458547E-04  6.085341E-02 -7.540144E-03
       217  5.037807E-04  3.900317E-02 -6.749478E-03
       218  3.728400E-04  3.900558E-02 -6.671810E-03
       219  4.666740E-04  3.897053E-02 -3.368804E-03
       220  4.129458E-04  3.895505E-02 -3.291555E-03
       221  5.664861E-04  4.599083E-02 -7.103542E-03
       222  4.387173E-04  3.902017E-02 -6.713365E-03
       223  4.687200E-04  4.599002E-02 -7.030373E-03
       224  3.306986E-04  2.630675E-02 -5.839338E-03
       225  1.796721E-04  2.625790E-02 -5.771114E-03
       226  3.181786E-04  2.624965E-02 -2.913184E-03
       227  2.419042E-04  2.620331E-02 -2.839003E-03
       228  4.045129E-04  3.243531E-02 -6.324926E-03
       229  2.550898E-04  2.630142E-02 -5.810993E-03
       230  2.857844E-04  3.239590E-02 -6.245937E-03
       231  8.656838E-04  8.447717E-02  7.854794E-03
       232  6.291399E-04  6.853221E-02  7.703936E-03
       233  8.757473E-04  8.435550E-02 -7.283638E-05
       234  7.359737E-04  6.849329E-02 -7.279643E-05
       235  8.465832E-04  8.440611E-02  7.880561E-03
       236  7.544196E-04  7.641568E-02  7.798958E-03
       237  6.596750E-04  6.857690E-02  7.742402E-03
       238  8.503557E-04  8.440222E-02  3.864170E-03
       239  6.874099E-04  6.851651E-02  3.806679E-03
       240  8.735639E-04  8.437516E-02 -3.597821E-05
       241  8.010995E-04  7.641645E-02 -7.047626E-05
       242  7.321644E-04  6.853495E-02 -3.615597E-05
       243  4.634267E-04  5.325484E-02  7.301110E-03
       244  5.939900E-04  5.316145E-02 -6.904776E-05
       245  5.629059E-04  6.076610E-02  7.542501E-03
       246  5.066146E-04  5.326071E-02  7.350910E-03
       247  5.275553E-04  5.317726E-02  3.612288E-03
       248  6.556831E-04  6.074879E-02 -7.462834E-05
       249  5.904806E-04  5.321842E-02 -3.508988E-05
       250  2.156085E-04  3.886051E-02  6.712290E-03
       251  4.850552E-04  3.881617E-02 -8.340870E-05
       252  3.709494E-04  4.586199E-02  7.015245E-03
       253  3.169613E-04  3.900546E-02  6.728254E-03
       254  3.506815E-04  3.889991E-02  3.281518E-03
       255  5.198911E-04  4.585151E-02 -5.852393E-05
       256  4.570426E-04  3.890570E-02 -3.969388E-05
       257  1.686895E-04  2.666076E-02  5.562782E-03
       258  3.034009E-04  2.611179E-02 -1.552583E-06
       259  2.820845E-04  3.238752E-02  6.308359E-03
       260  2.150347E-04  2.622007E-02  5.726083E-03
       261  2.320718E-04  2.608459E-02  2.839569E-03
       262  3.306989E-04  3.227817E-02 -1.109571E-04
       263  3.065824E-04  2.618744E-02 -7.621970E-06
       264  8.743639E-04  8.447262E-02 -7.994808E-03
       265  8.234454E-04  6.853312E-02 -7.844248E-03
       266  8.957126E-04  8.440343E-02 -4.007159E-03
       267  7.742909E-04  6.851046E-02 -3.950370E-03
       268  8.986697E-04  8.440707E-02 -7.953638E-03
       269  8.523258E-04  7.641769E-02 -7.944017E-03
       270  7.998343E-04  6.857440E-02 -7.813713E-03
       271  7.028640E-04  5.322661E-02 -7.455260E-03
       272  6.507484E-04  5.318483E-02 -3.754931E-03
       273  7.654751E-04  6.076326E-02 -7.679965E-03
       274  6.689224E-04  5.326583E-02 -7.427899E-03
       275  6.017427E-04  3.888997E-02 -6.825099E-03
       276  5.415665E-04  3.883684E-02 -3.434100E-03
       277  6.652082E-04  4.589097E-02 -7.180659E-03
       278  5.524660E-04  3.896310E-02 -6.789346E-03
       279  4.824389E-04  2.620615E-02 -5.937237E-03
       280  3.924108E-04  2.614251E-02 -2.974624E-03
       281  5.593991E-04  3.233252E-02 -6.378444E-03
       282  4.056578E-04  2.627578E-02 -5.887148E-03

 stresses (elem, integ.pnt.,sxx,syy,szz,sxy,sxz,syz) for set EALL and time  0.1000000E+01

         1   1  1.103288E+00 -1.548564E+00  1.710863E+02 -4.114915E+00 -2.910044E+00  5.728502E+00
         1   2  1.257920E+01  1.745597E+01  1.884611E+02 -6.956718E+00 -1.074830E+00  9.904112E-01
         1   3  1.482465E+00  2.162309E+00  1.965922E+02 -4.246613E-01  7.094190E-01  5.219223E+00
         1   4  6.167465E-02  2.255188E+00  1.904703E+02 -8.222162E-01  2.906472E+00 -2.005652E+00
         1   5 -6.651618E+00 -3.318639E+00  4.571729E+01  7.472656E-02  3.273514E-01  1.347720E+01
         1   6  8.666412E-01  1.260237E+01  5.272253E+01 -3.474082E+00  2.312755E+00  7.776658E+00
         1   7 -1.593844E+00  3.403192E+00  5.521172E+01  3.674725E-01  3.332944E-01  1.027221E+01
         1   8 -1.777650E+00  3.476764E+00  5.232311E+01  7.293777E-01 -3.271969E+00  1.102154E+01
         2   1 -1.234522E+00 -2.498775E+00  2.130265E+02  1.154153E+00 -1.498844E-01  4.229180E+00
         2   2 -3.758372E+00 -7.872255E+00  2.088611E+02  3.351895E+00 -1.907242E+00  7.420628E+00
         2   3  2.574002E+00  4.911591E+00  2.382872E+02 -1.175500E+00  4.552133E-01  8.331517E+00
         2   4  3.895651E+00  7.612531E+00  2.387412E+02 -3.958505E-01  9.278986E-01  4.795319E+00
         2   5  1.885034E+00 -5.525006E-01  5.943013E+01 -3.783918E-01 -6.480548E-01  1.475424E+01
         2   6 -1.249358E+00 -8.021807E+00  5.429183E+01  2.752821E+00  1.411014E-01  1.190276E+01
         2   7  2.760029E-01  2.363592E-01  6.653514E+01 -5.943160E-01  7.781467E-01  1.286292E+01
         2   8  4.565336E-01  1.815691E+00  6.358241E+01  1.277396E-01  4.152778E-01  1.046883E+01
         3   1 -3.564712E+00 -4.336602E+00  2.561223E+02 -6.977567E-02 -2.529605E+00  1.418639E+00
         3   2 -3.315633E+00 -5.020893E+00  2.546859E+02  1.026296E-01 -2.517238E+00  3.438513E+00
         3   3  5.534704E+00  2.481497E-02  2.817053E+02  3.717592E+00  4.436457E+00  1.065152E+01
         3   4  4.947886E+00 -1.802669E+00  2.741050E+02 -2.820626E+00  2.859197E+00  7.663523E+00
         3   5 -2.712519E+00 -5.111545E+00  6.879167E+01 -4.788941E-01 -6.719569E-01  1.648752E+01
         3   6 -1.740446E+00 -4.236465E+00  6.866903E+01 -6.179917E-01  2.700723E-01  1.503137E+01
         3   7  8.414315E+00  1.746993E+01  8.510838E+01  3.609152E+00  1.106707E+00  9.021209E+00
         3   8  8.818277E+00  1.819653E+01  8.165552E+01 -2.943198E+00  1.410138E-01  8.375570E+00
         4   1 -1.723002E+01 -1.421021E+01  2.931775E+02 -2.571466E+00 -1.210890E+01 -1.007834E-02
         4   2 -1.066026E+01 -1.053852E+01  3.042072E+02  1.418360E+00 -3.922380E+00 -4.258706E-01
         4   3  5.992110E+01  5.993106E+01  3.314755E+02 -7.572667E+00  3.024499E+01  1.108900E+01
         4   4  5.656597E+01  5.685416E+01  3.214400E+02  1.872142E+00  6.146075E+00  2.516593E+01
         4   5 -7.866513E+00 -1.085193E+01  7.674448E+01 -3.485631E+00 -3.396219E+00  1.854611E+01
         4   6 -6.462891E+00 -1.090360E+01  7.780521E+01  5.788949E-01 -9.925576E-01  1.782089E+01
         4   7  1.724094E+00 -1.662652E+01  7.599699E+01 -7.290231E+00  8.251531E+00 -7.109874E+00
         4   8  5.042950E-01 -1.718149E+01  7.150268E+01  2.174594E+00  1.542684E+00  7.480940E+00
         5   1 -4.410668E+00  1.934187E+00 -4.418385E+01  2.511952E+00  2.003373E+00  1.229893E+01
         5   2 -8.887781E+00 -8.861946E+00 -5.038673E+01  5.208809E+00  3.498546E+00  6.054015E+00
         5   3 -2.212339E+00 -8.126655E-01 -4.914240E+01  2.140317E+00 -6.969502E-03  1.240013E+01
         5   4 -3.796443E+00 -5.745320E+00 -5.231397E+01  3.403639E+00 -3.726907E+00  1.279590E+01
         5   5  5.023318E+00  5.152139E+00 -1.696787E+02 -3.634484E-01  2.475200E+00  3.575984E+00
         5   6  1.446200E+00 -4.564670E+00 -1.735381E+02  2.547466E+00  3.345352E+00  2.216026E+00
         5   7  1.691256E+00  1.292901E+00 -1.876938E+02  7.125386E-01  2.247880E-01  7.263645E+00
         5   8  7.985564E-01 -2.216534E+00 -1.907726E+02  1.833082E+00  2.858371E+00  4.163082E+00
         6   1  3.474850E+00  2.187756E+00 -5.251737E+01 -1.394225E+00 -7.755971E-01  1.541491E+01
         6   2  5.652019E+00  6.876401E+00 -5.277646E+01 -2.296425E+00  5.908169E-01  1.270680E+01
         6   3 -9.383575E-01 -1.222385E+00 -5.982080E+01 -7.329609E-01  2.442121E-02  1.211828E+01
         6   4 -1.291178E+00 -9.474205E-01 -6.336134E+01  5.133871E-01 -1.111854E-01  1.075553E+01
         6   5 -2.285699E+00 -8.920857E-01 -2.075579E+02 -1.590466E-02  8.729291E-01  4.721111E+00
         6   6  1.322104E-01  4.640928E+00 -2.086505E+02 -1.138226E+00  4.413004E-01  5.257737E+00
         6   7 -2.784549E+00 -5.832394E+00 -2.332268E+02 -5.974107E-01 -6.035823E-01  7.057949E+00
         6   8 -2.274721E+00 -4.993851E+00 -2.340433E+02  5.743431E-01 -1.113692E-01  5.929576E+00
         7   1  2.269324E+00  4.843152E+00 -6.290499E+01 -2.815425E-01  4.657341E-01  1.637549E+01
         7   2  1.905444E+00  4.275077E+00 -6.533437E+01  2.064123E-01  8.921749E-01  1.449440E+01
         7   3 -8.853103E+00 -1.744077E+01 -7.848147E+01  3.732494E+00 -1.065239E+00  8.996942E+00
         7   4 -9.280644E+00 -1.834695E+01 -8.068991E+01 -2.351400E+00 -1.091565E+00  8.646132E+00
         7   5  4.342563E+00  5.828554E+00 -2.486723E+02 -4.970353E-01  2.590967E+00  2.130933E+00
         7   6  1.695542E+00  2.938099E+00 -2.549315E+02 -1.981969E-02  1.165299E+00  2.015850E+00
         7   7 -4.924716E+00  1.258344E-01 -2.755029E+02  3.858141E+00 -4.491008E+00  1.042537E+01
         7   8 -3.348218E+00  2.797020E+00 -2.714961E+02 -2.207564E+00 -2.076336E+00  8.312169E+00
         8   1  8.289400E+00  1.101870E+01 -7.038248E+01 -3.592106E+00  3.268394E+00  1.882843E+01
         8   2  7.078507E+00  1.090037E+01 -7.560547E+01 -1.862771E-01  1.287718E+00  1.767693E+01
         8   3 -1.021483E+00  1.749778E+01 -6.968345E+01 -7.480285E+00 -7.933019E+00 -7.383276E+00
         8   4 -1.181719E+00  1.719704E+01 -7.026651E+01  2.209222E+00 -1.739309E+00  7.521038E+00
         8   5  1.603603E+01  1.357016E+01 -2.867616E+02 -2.619891E+00  1.207722E+01  3.598547E-01
         8   6  9.488892E+00  9.821933E+00 -3.032100E+02  8.086330E-01  3.673118E+00 -5.294728E-01
         8   7 -5.849131E+01 -5.891793E+01 -3.251144E+02 -7.436408E+00 -3.017567E+01  1.024403E+01
         8   8 -5.610969E+01 -5.621960E+01 -3.194380E+02  2.259181E+00 -6.349639E+00  2.517838E+01
         9   1 -2.100428E+01  9.922118E+00  1.669350E+02  4.671240E+01  4.877531E-01  4.536933E+00
         9   2  3.493529E+01  1.918718E+02  1.889179E+02 -5.553271E+01 -2.914889E+00 -7.418712E+00
         9   3 -1.360313E+01 -7.938656E+00  1.920959E+02  7.085496E+00  6.082931E+00  1.028690E+01
         9   4 -1.770216E+01 -2.968232E+01  1.924702E+02  1.306952E+01 -9.418734E+00  1.793116E+01
         9   5 -1.893742E+01 -7.865332E+01  2.369104E+01  2.275939E+01  6.216446E+00  5.645807E+00
         9   6 -4.700940E+01 -1.497506E+02  6.529913E+00  2.633883E+00  4.724536E+00  1.269942E+00
         9   7  3.752703E+00  3.755360E-01  5.254705E+01  2.576885E+00 -4.467439E+00  1.421522E+01
         9   8 -8.088203E-01 -1.822925E+01  4.807944E+01  6.248092E+00  1.380864E+00  1.077962E+01
        10   1  1.364699E+01  4.157405E-01  2.148318E+02 -1.639471E+01 -2.907988E+00  2.707737E+00
        10   2  2.249825E+00 -3.417840E+01  2.055165E+02  4.692057E+00  1.241710E+01 -1.030795E+01
        10   3  3.014920E-01  5.138107E+00  2.328769E+02  4.456042E-01 -6.452757E-01  3.735973E+00
        10   4 -1.464151E+00  1.012973E+00  2.282472E+02  2.815685E+00 -4.273992E+00  1.280529E+01
        10   5 -2.745244E-01  1.401791E+01  5.729627E+01 -4.372875E+00 -1.024666E+00  1.381791E+01
        10   6  1.371243E+01  4.664153E+01  6.302570E+01 -4.920213E+00 -3.097674E+00  1.837627E+01
        10   7  1.155247E+00  2.120864E+00  6.216235E+01 -8.263020E-01  6.535161E-01  9.768853E+00
        10   8  1.078940E-01 -8.001786E-01  6.019392E+01  1.439607E+00  9.863110E-01  1.210085E+01
        11   1 -2.017028E+00 -3.433463E+00  2.533410E+02  2.753496E+00  1.824782E+00  3.635989E+00
        11   2  1.859835E+00  1.040234E+01  2.516004E+02 -3.490041E+00  2.843693E+00  1.979174E+00
        11   3  1.822334E+00 -3.322136E+00  2.722408E+02  2.893784E+00 -1.414501E+00  8.273093E+00
        11   4  2.800440E+00 -2.246782E+00  2.761267E+02 -2.742902E+00 -5.458699E+00  1.111352E+01
        11   5 -3.085609E+00 -9.162619E+00  6.531263E+01  1.162604E+00  4.814549E-01  1.451441E+01
        11   6 -6.274214E+00 -1.360295E+01  5.947795E+01  6.461886E-01  1.425561E-01  1.595589E+01
        11   7  9.084007E+00  1.767048E+01  8.010342E+01  2.385765E+00 -6.855142E-01  8.228189E+00
        11   8  8.545440E+00  1.541102E+01  7.883601E+01 -3.122350E+00 -6.365338E-01  8.232362E+00
        12   1 -7.969014E+00 -9.348837E+00  3.033846E+02 -2.095949E+00  3.305653E+00 -6.618397E-01
        12   2 -1.555171E+01 -1.552619E+01  2.863577E+02  2.428696E+00  1.325436E+01 -1.005119E+00
        12   3  5.559519E+01  5.602258E+01  3.192485E+02 -2.266375E+00 -6.459931E+00  2.489146E+01
        12   4  5.704039E+01  5.668146E+01  3.239620E+02  8.003441E+00 -3.013834E+01  1.027997E+01
        12   5 -6.572831E+00 -9.404181E+00  7.631470E+01 -9.627472E-02  1.074808E+00  1.811906E+01
        12   6 -6.776462E+00 -6.925001E+00  7.118905E+01  2.913610E+00  2.940756E+00  1.924589E+01
        12   7  1.215220E+00 -1.686120E+01  7.026282E+01 -2.312010E+00 -1.611985E+00  7.456981E+00
        12   8  1.063586E+00 -1.745687E+01  6.982580E+01  7.551928E+00 -7.855062E+00 -7.282617E+00
        13   1  2.291728E+01  6.682698E+00 -3.301289E+01 -3.366771E+00  2.079586E+00  4.551483E+00
        13   2  3.477180E+01  2.594113E+01 -9.437222E+00 -8.953599E+00 -1.603841E+00  3.659694E+00
        13   3  4.068723E+00 -6.058010E+00 -5.437846E+01  2.061588E+00 -3.367860E+00  1.220725E+01
        13   4  2.709604E+00 -8.343392E+00 -6.212250E+01 -1.148477E+00  4.587067E+00  1.033735E+01
        13   5 -3.805979E+00 -7.455338E+00 -1.786266E+02 -3.541130E-02  1.062638E+00  3.382776E+00
        13   6 -3.375052E+00 -2.119786E+00 -1.844061E+02 -6.250812E+00  1.586943E-01  4.192504E+00
        13   7  6.891845E-01 -4.126787E+00 -1.917786E+02  9.073247E-01  4.067818E+00  2.994082E+00
        13   8  1.320692E+00 -3.070131E+00 -1.907596E+02 -1.543272E+00  2.411713E+00  2.328835E+00
        14   1 -1.016066E+01 -5.966577E-01 -6.253438E+01  2.102581E+00  2.201982E+00  1.393383E+01
        14   2 -1.207972E+01 -4.734435E+00 -7.159512E+01  4.274096E+00 -4.111897E+00  1.976450E+01
        14   3  9.587043E-01  8.313638E-01 -6.221146E+01 -1.624547E+00  1.077619E+00  1.019743E+01
        14   4  2.473514E+00  2.127084E+00 -6.000029E+01 -8.744788E-01  2.408854E+00  9.542285E+00
        14   5  2.409487E+00  6.083659E+00 -2.089564E+02  4.835020E-01 -7.974601E-01  5.033656E+00
        14   6  1.354966E+00  4.865313E+00 -2.116917E+02  3.567471E+00 -1.244767E+00  4.266682E+00
        14   7 -3.190135E+00 -5.038545E+00 -2.360638E+02 -1.427649E+00 -1.067058E+00  6.019045E+00
        14   8 -4.270236E+00 -6.211593E+00 -2.418985E+02 -7.352043E-01 -9.147949E-01  7.510354E+00
        15   1  3.118064E+00  4.805453E+00 -6.647484E+01  7.910141E-02 -8.543583E-01  1.466955E+01
        15   2  2.371392E+00  3.822794E+00 -6.878302E+01  8.735567E-01 -1.573492E+00  1.728032E+01
        15   3 -8.135901E+00 -1.775088E+01 -8.240461E+01  2.544258E+00  3.574978E-02  8.447338E+00
        15   4 -7.369162E+00 -1.622337E+01 -8.541423E+01 -4.106151E+00  1.701630E+00  8.465187E+00
        15   5  1.822087E+00  2.901153E+00 -2.565122E+02  3.013552E-01 -1.156508E+00  2.100394E+00
        15   6  4.467987E+00  4.455632E+00 -2.543875E+02  7.899387E-01 -1.373575E+00  2.471564E+00
        15   7 -3.953818E+00  2.669351E+00 -2.737280E+02  2.541091E+00  2.232703E+00  8.402247E+00
        15   8 -4.972721E+00  8.028328E-01 -2.821640E+02 -4.123341E+00  4.405938E+00  1.074563E+01
        16   1  5.415206E+00  1.000159E+01 -7.810759E+01  1.639061E-01 -7.743270E-01  1.780560E+01
        16   2  6.765946E+00  1.000002E+01 -7.772230E+01  4.010563E+00 -3.828427E+00  1.922888E+01
        16   3 -2.668288E-01  1.755818E+01 -7.133105E+01 -2.227093E+00  1.742115E+00  7.565188E+00
        16   4 -1.171973E+00  1.737969E+01 -7.527332E+01  7.194360E+00  8.347851E+00 -7.280067E+00
        16   5  1.017660E+01  9.951136E+00 -3.045856E+02 -1.023691E+00 -3.641381E+00 -6.977885E-01
        16   6  1.656168E+01  1.349804E+01 -2.928054E+02  2.896157E+00 -1.221783E+01 -3.014783E-01
        16   7 -5.599506E+01 -5.624087E+01 -3.209634E+02 -2.000807E+00  5.938485E+00  2.534226E+01
        16   8 -5.974769E+01 -5.966498E+01 -3.316441E+02  7.440258E+00  3.004922E+01  1.084067E+01
        17   1  3.128471E+00 -1.282830E+01  1.000227E+01 -5.116400E+00 -2.065621E+00  7.941604E+00
        17   2  4.067715E+00 -2.593777E+00  8.789110E+00  5.327807E+00 -1.920116E+00  3.376732E+00
        17   3  1.243049E+00  4.085151E+00  3.330102E+01  9.821575E-01 -1.003900E+00  3.013640E+00
        17   4  1.324973E+00  2.707863E+00  3.422577E+01  7.886752E-01 -7.749732E-01  4.094772E+00
        17   5 -2.673989E+00 -2.468418E+00  4.578362E-02 -4.518633E+00  1.436729E+00  1.500916E+01
        17   6 -2.019015E+00  1.577828E-01  1.271149E+00 -1.657421E+00  7.912202E-01  9.665510E+00
        17   7  9.237999E-01  4.249920E+00  8.577753E+00  1.048599E-01  6.628787E-01  1.581697E+01
        17   8  6.732741E-01  2.742610E+00  9.271053E+00 -1.032845E-01  4.601249E-01  1.320462E+01
        18   1 -1.666957E+00 -5.540996E-01  5.197378E+01  3.377247E-01 -4.589962E-02  8.154059E+00
        18   2 -1.351772E+00 -1.697982E+00  5.173857E+01 -2.407953E+00  1.217028E-01  4.577755E+00
        18   3  2.943381E-01  5.475942E-01  7.562338E+01  4.755492E-02 -7.101571E-01  3.838872E+00
        18   4  6.073737E-01  6.192763E-01  7.612598E+01  4.287664E-01 -1.428054E+00  5.490400E+00
        18   5 -9.057378E-01 -3.833336E+00  1.295604E+01  5.845758E-01 -1.521793E-01  1.186918E+01
        18   6 -1.694351E-02 -2.346038E+00  1.379994E+01 -1.304409E-01 -6.739767E-01  1.092750E+01
        18   7  9.098704E-01  1.516046E+00  2.147282E+01  7.211622E-02 -3.704705E-01  1.442429E+01
        18   8  2.641411E-01  2.283971E-01  1.984111E+01  5.035824E-01  5.139053E-01  1.222393E+01
        19   1  3.892479E-02 -7.056712E-01  9.451591E+01  1.329848E-01 -6.436408E-01  6.791341E+00
        19   2 -1.018471E+00 -2.172421E+00  9.244586E+01  1.250038E+00  1.692380E-02  4.257475E+00
        19   3  1.048612E+00  1.304460E+00  1.193929E+02 -1.565787E+00  1.681818E-01  5.103289E+00
        19   4  3.775404E+00  7.571099E+00  1.214915E+02 -3.643718E+00 -1.343552E+00  7.384442E+00
        19   5 -1.048510E-01  2.324950E-02  2.462042E+01 -2.203214E-01  6.193684E-01  1.412001E+01
        19   6 -4.033305E-01 -1.468299E+00  2.488869E+01  4.151719E-01  5.124116E-01  1.218187E+01