
 displacements (vx,vy,vz) for set NALL and time  0.1000000E+01

         1  0.000000E+00  0.000000E+00  0.000000E+00
         2  0.000000E+00  0.000000E+00  0.000000E+00
         3  0.000000E+00  0.000000E+00  0.000000E+00
         4  0.000000E+00  0.000000E+00  0.000000E+00
         5  3.012444E-01 -1.773113E-01 -1.231067E-03
         6  1.773630E-01  3.012744E-01 -1.263124E-03
         7 -3.012560E-01  1.773044E-01 -1.229222E-03
         8 -1.773741E-01 -3.012805E-01 -1.264448E-03
         9  0.000000E+00  0.000000E+00  0.000000E+00
        10  0.000000E+00  0.000000E+00  0.000000E+00
        11  0.000000E+00  0.000000E+00  0.000000E+00
        12  0.000000E+00  0.000000E+00  0.000000E+00
        13  0.000000E+00  0.000000E+00  0.000000E+00
        14  0.000000E+00  0.000000E+00  0.000000E+00
        15  0.000000E+00  0.000000E+00  0.000000E+00
        16  0.000000E+00  0.000000E+00  0.000000E+00
        17  0.000000E+00  0.000000E+00  0.000000E+00
        18  0.000000E+00  0.000000E+00  0.000000E+00
        19  0.000000E+00  0.000000E+00  0.000000E+00
        20  0.000000E+00  0.000000E+00  0.000000E+00
        21  2.483994E-01 -5.838225E-02 -7.121164E-03
        22  2.094361E-01  4.532390E-02 -1.529042E-03
        23  1.953135E-01  1.637102E-01  4.177558E-03
        24  5.839319E-02  2.484105E-01 -7.134123E-03
        25 -4.533560E-02  2.094369E-01 -1.527011E-03
        26 -1.637141E-01  1.952837E-01  4.184628E-03
        27 -2.484107E-01  5.837565E-02 -7.120417E-03
        28 -2.094469E-01 -4.533012E-02 -1.528837E-03
        29 -1.953245E-01 -1.637164E-01  4.177021E-03
        30 -5.840423E-02 -2.484166E-01 -7.135460E-03
        31  4.532451E-02 -2.094430E-01 -1.528424E-03
        32  1.637025E-01 -1.952901E-01  4.182879E-03
        33  1.216096E-02  1.259552E-02 -6.286335E-05
        34  2.591995E-02  2.743683E-02 -1.459605E-04
        35  3.953146E-02  4.308847E-02 -2.400839E-04
        36  5.223436E-02  5.852884E-02 -3.303645E-04
        37  6.440127E-02  7.417051E-02 -4.031337E-04
        38  7.625470E-02  9.039879E-02 -4.901587E-04
        39  8.763670E-02  1.068444E-01 -5.680087E-04
        40  9.862288E-02  1.239283E-01 -6.566997E-04
        41  1.088869E-01  1.405715E-01 -7.063497E-04
        42  1.189045E-01  1.584840E-01 -8.518371E-04
        43  1.283559E-01  1.757284E-01 -9.089921E-04
        44  1.381484E-01  1.965344E-01 -1.010540E-03
        45  1.449153E-01  2.096265E-01 -9.115222E-04
        46  1.529742E-01  2.307627E-01 -1.398149E-03
        47  1.618579E-01  2.507359E-01 -1.180340E-03
        48  2.507312E-01 -1.618716E-01 -1.172786E-03
        49  2.307634E-01 -1.529719E-01 -1.400140E-03
        50  2.096252E-01 -1.449239E-01 -9.140034E-04
        51  1.965330E-01 -1.381489E-01 -1.010000E-03
        52  1.757265E-01 -1.283608E-01 -9.100250E-04
        53  1.584838E-01 -1.189067E-01 -8.525949E-04
        54  1.405705E-01 -1.088901E-01 -7.073905E-04
        55  1.239279E-01 -9.862444E-02 -6.572741E-04
        56  1.068438E-01 -8.763851E-02 -5.687059E-04
        57  9.039852E-02 -7.625570E-02 -4.906708E-04
        58  7.417018E-02 -6.440218E-02 -4.036287E-04
        59  5.852870E-02 -5.223480E-02 -3.307098E-04
        60  4.308833E-02 -3.953179E-02 -2.403681E-04
        61  2.743679E-02 -2.592005E-02 -1.461275E-04
        62  1.259549E-02 -1.216101E-02 -6.295644E-05
        63 -1.259554E-02  1.216096E-02 -6.283189E-05
        64 -2.743697E-02  2.591995E-02 -1.458720E-04
        65 -4.308873E-02  3.953156E-02 -2.399829E-04
        66 -5.852941E-02  5.223442E-02 -3.301969E-04
        67 -7.417129E-02  6.440159E-02 -4.029924E-04
        68 -9.040012E-02  7.625487E-02 -4.899131E-04
        69 -1.068460E-01  8.763737E-02 -5.678307E-04
        70 -1.239307E-01  9.862294E-02 -6.562837E-04
        71 -1.405741E-01  1.088882E-01 -7.062916E-04
        72 -1.584882E-01  1.189043E-01 -8.513957E-04
        73 -1.757318E-01  1.283579E-01 -9.087253E-04
        74 -1.965394E-01  1.381454E-01 -1.008606E-03
        75 -2.096326E-01  1.449198E-01 -9.125162E-04
        76 -2.307720E-01  1.529670E-01 -1.398650E-03
        77 -2.507413E-01  1.618662E-01 -1.171108E-03
        78 -1.216099E-02 -1.259552E-02 -6.291191E-05
        79 -2.592011E-02 -2.743688E-02 -1.460661E-04
        80 -3.953184E-02 -4.308863E-02 -2.402533E-04
        81 -5.223505E-02 -5.852916E-02 -3.306019E-04
        82 -6.440237E-02 -7.417103E-02 -4.034430E-04
        83 -7.625630E-02 -9.039956E-02 -4.905453E-04
        84 -8.763887E-02 -1.068455E-01 -5.684767E-04
        85 -9.862572E-02 -1.239298E-01 -6.572546E-04
        86 -1.088905E-01 -1.405733E-01 -7.069926E-04
        87 -1.189089E-01 -1.584863E-01 -8.525769E-04
        88 -1.283612E-01 -1.757313E-01 -9.098272E-04
        89 -1.381547E-01 -1.965378E-01 -1.011486E-03
        90 -1.449227E-01 -2.096305E-01 -9.125504E-04
        91 -1.529828E-01 -2.307674E-01 -1.399302E-03
        92 -1.618676E-01 -2.507413E-01 -1.181563E-03
        93  0.000000E+00  0.000000E+00  0.000000E+00
        94  0.000000E+00  0.000000E+00  0.000000E+00
        95  0.000000E+00  0.000000E+00  0.000000E+00
        96  0.000000E+00  0.000000E+00  0.000000E+00
        97  0.000000E+00  0.000000E+00  0.000000E+00
        98  1.072618E-01  2.401963E-02 -1.197099E-03
        99  2.401750E-02 -1.072655E-01 -1.198064E-03
       100 -5.480970E-06 -3.141919E-06 -1.063724E-03
       101 -2.402855E-02  1.072593E-01 -1.197361E-03
       102 -1.072727E-01 -2.402594E-02 -1.197026E-03
       103  1.301945E-02  2.186283E-04 -6.977604E-05
       104  2.706342E-02 -1.259125E-02 -2.818358E-03
       105  2.676736E-02  7.413344E-04 -1.447569E-04
       106  2.633455E-02  1.416419E-02  2.519676E-03
       107  4.114915E-02  1.738436E-03 -2.460755E-04
       108  5.693312E-02 -2.451926E-02 -2.312738E-03
       109  5.534631E-02  3.112494E-03 -3.240954E-04
       110  5.381203E-02  3.082530E-02  1.662003E-03
       111  6.934669E-02  4.879074E-03 -4.069348E-04
       112  8.681707E-02 -3.461042E-02 -2.641976E-03
       113  8.326698E-02  7.008853E-03 -4.780316E-04
       114  7.976135E-02  4.874759E-02  1.671473E-03
       115  9.728382E-02  9.606902E-03 -5.699768E-04
       116  1.174233E-01 -4.302283E-02 -2.776144E-03
       117  1.109944E-01  1.247993E-02 -6.343864E-04
       118  1.048225E-01  6.819699E-02  1.485363E-03
       119  1.249664E-01  1.593849E-02 -7.503945E-04
       120  1.483971E-01 -4.983137E-02 -2.889791E-03
       121  1.381718E-01  1.941306E-02 -7.639437E-04
       122  1.285167E-01  8.912006E-02  1.272300E-03
       123  1.523399E-01  2.387864E-02 -9.014652E-04
       124  1.801378E-01 -5.478364E-02 -3.311301E-03
       125  1.645414E-01  2.764188E-02 -9.068320E-04
       126  1.514450E-01  1.115299E-01  1.389221E-03
       127  1.796988E-01  3.363446E-02 -1.177770E-03
       128  2.114153E-01 -6.002721E-02 -2.486948E-03
       129  1.889393E-01  3.661756E-02 -9.247390E-04
       130  1.705316E-01  1.361295E-01  1.888519E-04
       131  2.069784E-01  4.508925E-02 -1.263661E-03
       132 -2.186694E-04  1.301945E-02 -6.971584E-05
       133  1.259113E-02  2.706347E-02 -2.818208E-03
       134 -7.414737E-04  2.676743E-02 -1.446276E-04
       135 -1.416433E-02  2.633458E-02  2.519783E-03
       136 -1.738735E-03  4.114923E-02 -2.458837E-04
       137  2.451876E-02  5.693330E-02 -2.312435E-03
       138 -3.113043E-03  5.534655E-02 -3.238393E-04
       139 -3.082587E-02  5.381218E-02  1.662212E-03
       140 -4.879901E-03  6.934692E-02 -4.066150E-04
       141  3.460930E-02  8.681748E-02 -2.641531E-03
       142 -7.010112E-03  8.326753E-02 -4.776508E-04
       143 -4.874888E-02  7.976171E-02  1.671791E-03
       144 -9.608518E-03  9.728425E-02 -5.695428E-04
       145  4.302087E-02  1.174241E-01 -2.775588E-03
       146 -1.248222E-02  1.109955E-01 -6.338893E-04
       147 -6.819937E-02  1.048231E-01  1.485779E-03
       148 -1.594113E-02  1.249669E-01 -7.498411E-04
       149  4.982854E-02  1.483983E-01 -2.889167E-03
       150 -1.941690E-02  1.381736E-01 -7.633324E-04
       151 -8.912392E-02  1.285175E-01  1.272979E-03
       152 -2.388243E-02  1.523406E-01 -9.007904E-04
       153  5.477969E-02  1.801400E-01 -3.310799E-03
       154 -2.764800E-02  1.645450E-01 -9.058339E-04
       155 -1.115361E-01  1.514452E-01  1.389942E-03
       156 -3.363920E-02  1.796990E-01 -1.177412E-03
       157  6.002542E-02  2.114183E-01 -2.486326E-03
       158 -3.662815E-02  1.889430E-01 -9.232480E-04
       159 -1.361375E-01  1.705302E-01  1.921960E-04
       160 -4.509454E-02  2.069800E-01 -1.263962E-03
       161 -1.301947E-02 -2.186557E-04 -6.973972E-05
       162 -2.706358E-02  1.259115E-02 -2.818191E-03
       163 -2.676752E-02 -7.414221E-04 -1.446817E-04
       164 -2.633471E-02 -1.416426E-02  2.519660E-03
       165 -4.114952E-02 -1.738634E-03 -2.459678E-04
       166 -5.693381E-02  2.451890E-02 -2.312412E-03
       167 -5.534700E-02 -3.112846E-03 -3.239578E-04
       168 -5.381272E-02 -3.082564E-02  1.661953E-03
       169 -6.934778E-02 -4.879629E-03 -4.067717E-04
       170 -8.681865E-02  3.460960E-02 -2.641503E-03
       171 -8.326856E-02 -7.009659E-03 -4.778461E-04
       172 -7.976294E-02 -4.874838E-02  1.671372E-03
       173 -9.728598E-02 -9.608014E-03 -5.697733E-04
       174 -1.174261E-01  4.302135E-02 -2.775540E-03
       175 -1.109973E-01 -1.248139E-02 -6.341683E-04
       176 -1.048254E-01 -6.819845E-02  1.485195E-03
       177 -1.249699E-01 -1.594037E-02 -7.501686E-04
       178 -1.484015E-01  4.982902E-02 -2.889072E-03
       179 -1.381762E-01 -1.941539E-02 -7.637089E-04
       180 -1.285211E-01 -8.912239E-02  1.272048E-03
       181 -1.523452E-01 -2.388150E-02 -9.012326E-04
       182 -1.801442E-01  5.478019E-02 -3.310493E-03
       183 -1.645477E-01 -2.764529E-02 -9.065957E-04
       184 -1.514513E-01 -1.115334E-01  1.388869E-03
       185 -1.797062E-01 -3.363852E-02 -1.177568E-03
       186 -2.114238E-01  6.002243E-02 -2.486063E-03
       187 -1.889477E-01 -3.662226E-02 -9.245021E-04
       188 -1.705401E-01 -1.361342E-01  1.883898E-04
       189 -2.069881E-01 -4.509478E-02 -1.263472E-03
       190  2.186130E-04 -1.301947E-02 -6.979980E-05
       191 -1.259130E-02 -2.706354E-02 -2.818353E-03
       192  7.412925E-04 -2.676751E-02 -1.448103E-04
       193  1.416415E-02 -2.633467E-02  2.519565E-03
       194  1.738328E-03 -4.114941E-02 -2.461608E-04
       195 -2.451947E-02 -5.693363E-02 -2.312742E-03
       196  3.112326E-03 -5.534690E-02 -3.242147E-04
       197  3.082515E-02 -5.381254E-02  1.661769E-03
       198  4.878780E-03 -6.934746E-02 -4.070879E-04
       199 -3.461091E-02 -8.681826E-02 -2.642011E-03
       200  7.008501E-03 -8.326833E-02 -4.782232E-04
       201  4.874727E-02 -7.976253E-02  1.671127E-03
       202  9.606329E-03 -9.728535E-02 -5.702147E-04
       203 -4.302372E-02 -1.174255E-01 -2.776252E-03
       204  1.247937E-02 -1.109970E-01 -6.346615E-04
       205  6.819651E-02 -1.048246E-01  1.484899E-03
       206  1.593753E-02 -1.249688E-01 -7.507119E-04
       207 -4.983296E-02 -1.484006E-01 -2.890024E-03
       208  1.941247E-02 -1.381759E-01 -7.643044E-04
       209  8.911948E-02 -1.285198E-01  1.271894E-03
       210  2.387708E-02 -1.523435E-01 -9.018587E-04
       211 -5.478603E-02 -1.801434E-01 -3.311857E-03
       212  2.764166E-02 -1.645485E-01 -9.070048E-04
       213  1.115297E-01 -1.514487E-01  1.388661E-03
       214  3.363179E-02 -1.797030E-01 -1.178659E-03
       215 -6.003397E-02 -2.114230E-01 -2.487591E-03
       216  3.661961E-02 -1.889477E-01 -9.246207E-04
       217  1.361289E-01 -1.705350E-01  1.907685E-04
       218  4.508471E-02 -2.069854E-01 -1.265384E-03
       219 -1.890165E-08 -9.854600E-09 -1.014952E-04
       220  1.338993E-02  3.813175E-04 -1.502617E-04
       221  3.812765E-04 -1.339007E-02 -1.502891E-04
       222 -8.613905E-08 -4.256146E-08 -1.549444E-04
       223 -3.814486E-04  1.338999E-02 -1.501976E-04
       224 -1.339010E-02 -3.814021E-04 -1.502245E-04
       225 -1.952752E-07 -9.602954E-08 -2.397130E-04
       226  2.766868E-02  1.562279E-03 -3.250705E-04
       227  1.562106E-03 -2.766924E-02 -3.251290E-04
       228 -3.523882E-07 -1.743206E-07 -3.254794E-04
       229 -1.562814E-03  2.766889E-02 -3.249413E-04
       230 -2.766938E-02 -1.562628E-03 -3.250020E-04
       231 -5.526234E-07 -2.755781E-07 -4.034475E-04
       232  4.163197E-02  3.511077E-03 -4.855173E-04
       233  3.510709E-03 -4.163324E-02 -4.856174E-04
       234 -7.982440E-07 -4.026952E-07 -4.940065E-04
       235 -3.512309E-03  4.163244E-02 -4.853311E-04
       236 -4.163356E-02 -3.511882E-03 -4.854250E-04
       237 -1.086678E-06 -5.540542E-07 -5.618133E-04
       238  5.550019E-02  6.250101E-03 -6.527908E-04
       239  6.249466E-03 -5.550252E-02 -6.529186E-04
       240 -1.419125E-06 -7.328995E-07 -6.701569E-04
       241 -6.252308E-03  5.550106E-02 -6.525325E-04
       242 -5.550302E-02 -6.251566E-03 -6.526822E-04
       243 -1.793459E-06 -9.375564E-07 -7.151685E-04
       244  6.905045E-02  9.696943E-03 -8.094157E-04
       245  9.696178E-03 -6.905427E-02 -8.096214E-04
       246 -2.209889E-06 -1.170402E-06 -8.576769E-04
       247 -9.700600E-03  6.905193E-02 -8.091356E-04
       248 -6.905486E-02 -9.699280E-03 -8.092989E-04
       249 -2.665133E-06 -1.425908E-06 -8.625847E-04
       250  8.240179E-02  1.389406E-02 -9.966172E-04
       251  1.389307E-02 -8.240752E-02 -9.966890E-04
       252 -3.160338E-06 -1.709767E-06 -1.090693E-03
       253 -1.389939E-02  8.240409E-02 -9.961037E-04
       254 -8.240811E-02 -1.389748E-02 -9.964991E-04
       255 -3.699302E-06 -2.031160E-06 -9.612998E-04
       256  9.383574E-02  1.800761E-02 -1.081761E-03
       257  1.800827E-02 -9.384417E-02 -1.081572E-03
       258 -4.265221E-06 -2.362996E-06 -1.201330E-03
       259 -1.801680E-02  9.383946E-02 -1.080886E-03
       260 -9.384423E-02 -1.801231E-02 -1.081646E-03
       261 -4.851243E-06 -2.741592E-06 -1.305634E-03

 forces (fx,fy,fz) for set NALL and time  0.1000000E+01

         1  1.136134E+01 -1.252913E+01 -1.557366E+00
         2  1.252921E+01  1.136136E+01 -1.557256E+00
         3 -1.136087E+01  1.252951E+01 -1.557314E+00
         4 -1.252891E+01 -1.136138E+01 -1.557290E+00
         5  2.202325E+02 -6.435122E+01  4.408284E-03
         6  6.486946E+01  2.203149E+02  2.764555E-03
         7 -2.202081E+02  6.433600E+01  9.094040E-04
         8 -6.487137E+01 -2.203136E+02  3.698377E-03
         9 -9.920891E+01  7.927697E+01  9.492596E+01
        10  1.875742E+01  4.610574E-01 -1.810176E+00
        11 -1.015188E+02 -8.502569E+01 -9.652052E+01
        12 -7.927700E+01 -9.920870E+01  9.492420E+01
        13 -4.603891E-01  1.875704E+01 -1.810058E+00
        14  8.502618E+01 -1.015185E+02 -9.652160E+01
        15  9.920809E+01 -7.927648E+01  9.492354E+01
        16 -1.875689E+01 -4.606708E-01 -1.810124E+00
        17  1.015179E+02  8.502546E+01 -9.651985E+01
        18  7.927716E+01  9.920833E+01  9.492548E+01
        19  4.611682E-01 -1.875679E+01 -1.810244E+00
        20 -8.502567E+01  1.015181E+02 -9.651896E+01
        21 -1.315125E-02 -1.792766E-02  1.687065E-02
        22  2.239083E-02 -6.909385E-03  1.628373E-03
        23 -4.221450E-03 -6.409190E-03  3.365178E-05
        24  2.042979E-04  1.104371E-02  4.050868E-03
        25  1.301589E-03 -3.138643E-03 -4.269248E-04
        26  4.150310E-03 -1.860689E-03  6.358440E-04
        27 -5.845942E-03  9.242570E-04  2.961923E-03
        28 -1.597750E-03 -1.157765E-04  3.781007E-04
        29  4.672874E-03  8.602323E-03  7.961715E-04
        30 -2.859994E-04 -1.363362E-02  3.958238E-03
        31  3.003740E-02 -8.993589E-03  6.536153E-04
        32 -5.163798E-02  2.194091E-02 -4.703303E-03
        33  5.666017E-06 -5.523649E-06 -3.516320E-06
        34 -1.501126E-05  1.318465E-05  1.618756E-05
        35  3.846747E-05 -3.270450E-05 -2.082119E-05
        36 -4.347927E-05  3.400178E-05  3.701801E-05
        37  1.084571E-04 -8.022836E-05 -4.786202E-05
        38 -9.196405E-05  6.380960E-05  6.321757E-05
        39  2.214455E-04 -1.423905E-04 -8.639825E-05
        40 -1.593887E-04  9.847731E-05  9.452604E-05
        41  3.744025E-04 -2.086674E-04 -1.323637E-04
        42 -2.500903E-04  1.447450E-04  1.466278E-04
        43  6.214273E-04 -3.174871E-04 -2.240222E-04
        44 -3.474503E-04  1.952851E-04  2.691494E-04
        45  9.833314E-04 -4.692459E-04 -3.655503E-04
        46 -1.799613E-04  2.805172E-04  2.181965E-03
        47  6.569945E-03 -4.244281E-03 -3.690513E-03
        48 -3.238668E-02 -1.546817E-02 -6.954133E-03
        49  2.327033E-02  1.726391E-03  5.972236E-03
        50 -5.263698E-04 -1.171176E-03 -3.561296E-04
        51  1.742469E-04  3.610757E-04  2.712178E-04
        52 -3.431818E-04 -6.899852E-04 -1.207299E-04
        53  1.366441E-04  2.729024E-04  1.124417E-04
        54 -2.550515E-04 -4.603695E-04 -5.676695E-05
        55  1.031002E-04  1.795709E-04  6.918134E-05
        56 -1.698235E-04 -2.705177E-04 -2.633249E-05
        57  6.549478E-05  1.016251E-04  4.307460E-05
        58 -9.390626E-05 -1.355324E-04 -1.160199E-05
        59  3.269514E-05  4.660337E-05  2.564556E-05
        60 -3.661902E-05 -4.938451E-05 -4.618578E-06
        61  1.141070E-05  1.486266E-05  1.194866E-05
        62 -5.978627E-06 -7.723671E-06 -1.499687E-06
        63  7.296488E-06  6.662305E-06 -1.350026E-06
        64 -1.339476E-05 -1.423184E-05  1.156011E-05
        65  4.220706E-05  4.601793E-05 -3.079923E-06
        66 -3.815346E-05 -4.524247E-05  2.230612E-05
        67  1.042624E-04  1.315884E-04 -2.036944E-06
        68 -7.416290E-05 -1.009162E-04  2.897032E-05
        69  1.851531E-04  2.670099E-04  7.849380E-06
        70 -1.179497E-04 -1.833320E-04  2.936547E-05
        71  2.807799E-04  4.634092E-04  2.423738E-05
        72 -1.538523E-04 -2.834574E-04 -1.163024E-07
        73  3.594337E-04  6.883805E-04  1.058951E-04
        74 -2.227957E-04 -4.286580E-04 -1.531852E-06
        75  5.725917E-04  1.193265E-03  3.927109E-05
        76  1.869475E-04  4.729740E-04  8.238158E-04
        77  3.331528E-03  4.384113E-03 -1.444021E-03
        78 -4.790688E-06  4.870618E-06 -3.062238E-06
        79  8.324168E-06 -7.109234E-06  9.451308E-06
        80 -3.621562E-05  3.039125E-05  1.106587E-06
        81  3.014545E-05 -2.234144E-05  1.454832E-05
        82 -1.047530E-04  7.539627E-05  1.528882E-05
        83  7.170704E-05 -4.531664E-05  1.461213E-05
        84 -2.175813E-04  1.329663E-04  3.949543E-05
        85  1.348433E-04 -7.268350E-05  7.436252E-06
        86 -3.735320E-04  1.945262E-04  7.835147E-05
        87  2.179837E-04 -9.447520E-05  5.843696E-06
        88 -6.195222E-04  2.683581E-04  9.466695E-05
        89  3.102470E-04 -1.402953E-04  5.193670E-05
        90 -1.003188E-03  4.716302E-04  1.110095E-04
        91 -2.209158E-04 -4.030188E-04  2.328014E-03
        92 -6.527921E-03  4.762771E-03 -3.980508E-03
        93 -1.676587E+02 -3.771905E-01  4.715114E+00
        94 -3.775053E-01  1.676595E+02  4.715810E+00
        95  5.865377E-04  2.940623E-04  9.934293E-01
        96  3.760603E-01 -1.676596E+02  4.713227E+00
        97  1.676585E+02  3.765221E-01  4.713989E+00
        98  3.000544E-03  3.092586E-02  5.253342E-03
        99 -2.351743E-02  5.781505E-03  3.285638E-03
       100  1.452719E-02 -9.892654E-03  8.750898E-04
       101 -5.425457E-03  2.636735E-03  1.434285E-03
       102  3.465197E-03 -4.925075E-03  7.315151E-04
       103  9.870140E-07 -1.301317E-05 -7.958452E-06
       104 -3.502758E-07 -4.383130E-05 -1.813389E-05
       105 -4.500405E-06  2.730026E-05  3.020601E-05
       106  4.464337E-06 -3.897826E-05 -2.019223E-05
       107  3.966228E-06 -8.002930E-05 -3.339753E-05
       108  3.681201E-06 -1.455136E-04 -4.998838E-05
       109 -1.272801E-05  7.794417E-05  6.679175E-05
       110  1.417047E-05 -1.375625E-04 -5.296297E-05
       111  1.706512E-05 -2.115931E-04 -7.202694E-05
       112  2.356627E-05 -3.095531E-04 -9.721994E-05
       113 -2.814969E-05  1.591092E-04  1.094927E-04
       114  3.947384E-05 -2.989600E-04 -9.839778E-05
       115  5.174018E-05 -4.031672E-04 -1.243654E-04
       116  7.449462E-05 -5.296518E-04 -1.620216E-04
       117 -6.034025E-05  2.644872E-04  1.585764E-04
       118  9.234024E-05 -5.173510E-04 -1.568139E-04
       119  1.250456E-04 -6.431890E-04 -1.909175E-04
       120  1.665746E-04 -7.975326E-04 -2.413608E-04
       121 -9.357855E-05  3.938542E-04  2.183067E-04
       122  1.725270E-04 -7.985951E-04 -2.440721E-04
       123  2.088150E-04 -9.359909E-04 -2.687240E-04
       124  3.547843E-04 -1.058609E-03 -4.246229E-04
       125 -1.801269E-04  4.770593E-04  3.988388E-04
       126  3.154101E-04 -1.140246E-03 -3.764548E-04
       127  4.876795E-04 -1.259151E-03 -5.409148E-04
       128 -1.981590E-02 -1.006185E-02 -7.449439E-03
       129  1.146417E-02 -2.289723E-03  4.665474E-03
       130 -9.190159E-04 -3.466725E-03 -2.673399E-03
       131  2.768480E-02 -4.500616E-03 -9.260051E-03
       132  1.310884E-05 -1.543243E-07 -8.377554E-06
       133  3.874139E-05  3.276240E-08 -2.130235E-05
       134 -2.835037E-05 -1.928723E-07  3.037314E-05
       135  4.425992E-05  6.910510E-06 -1.759645E-05
       136  8.081734E-05  1.003634E-05 -3.320665E-05
       137  1.377166E-04  1.807760E-05 -5.299697E-05
       138 -8.144676E-05 -9.185981E-06  6.563170E-05
       139  1.472896E-04  3.403012E-05 -4.374832E-05
       140  2.149640E-04  4.655628E-05 -6.572597E-05
       141  3.008735E-04  6.696851E-05 -9.194327E-05
       142 -1.663619E-04 -3.627712E-05  1.029084E-04
       143  3.136580E-04  9.426953E-05 -7.402820E-05
       144  4.112010E-04  1.236006E-04 -1.020400E-04
       145  5.240732E-04  1.583799E-04 -1.344208E-04
       146 -2.847350E-04 -8.175592E-05  1.451201E-04
       147  5.417848E-04  1.951349E-04 -1.112667E-04
       148  6.696643E-04  2.408407E-04 -1.468240E-04
       149  8.000123E-04  3.097257E-04 -1.920169E-04
       150 -4.047317E-04 -1.867435E-04  1.785735E-04
       151  8.083023E-04  3.562278E-04 -1.259037E-04
       152  9.441109E-04  4.869563E-04 -1.707087E-04
       153  1.095402E-03  5.635633E-04 -2.629712E-04
       154 -6.300176E-04 -2.900231E-04  3.504695E-04
       155  1.193857E-03  5.267874E-04 -2.626266E-04
       156  1.417149E-03  6.812653E-04 -3.856396E-04
       157  4.871269E-04  3.583289E-03 -1.593468E-03
       158  4.656457E-04 -1.735878E-03  1.926395E-03
       159  2.804688E-03 -6.968268E-04 -1.494458E-03
       160  7.827879E-04  3.865905E-03 -1.693617E-03
       161  2.289462E-06  1.143836E-05 -6.359167E-06
       162  8.919782E-08  3.706839E-05 -9.514590E-06
       163 -5.662896E-06 -2.335065E-05  2.474687E-05
       164  9.516390E-06  4.115320E-05 -1.069005E-05
       165  7.294008E-06  7.639445E-05 -1.157036E-05
       166 -2.979745E-06  1.329536E-04 -8.170119E-06
       167 -9.132024E-06 -7.037265E-05  4.544698E-05
       168  1.213202E-05  1.420200E-04 -8.728224E-06
       169  8.298826E-07  2.070446E-04 -5.078818E-06
       170 -2.227896E-05  2.936596E-04  5.532308E-06
       171 -5.785929E-06 -1.504593E-04  6.146509E-05
       172 -1.629290E-06  3.074933E-04  6.227731E-06
       173 -2.497241E-05  4.012539E-04  1.120843E-05
       174 -7.189907E-05  5.120050E-04  2.994601E-05
       175  1.597736E-05 -2.539873E-04  7.307885E-05
       176 -4.793114E-05  5.315622E-04  4.100656E-05
       177 -9.552033E-05  6.414282E-04  4.213024E-05
       178 -1.593570E-04  7.890591E-04  8.345253E-05
       179  2.014565E-05 -4.015310E-04  9.978149E-05
       180 -1.128521E-04  8.126869E-04  6.498433E-05
       181 -1.397282E-04  9.635071E-04  3.443614E-05
       182 -3.133265E-04  1.040379E-03  4.259799E-05
       183  7.896608E-05 -4.610064E-04  2.006264E-04
       184 -2.696431E-04  1.207853E-03  1.158446E-04
       185 -4.207679E-04  1.220638E-03  4.640589E-05
       186 -3.157113E-03  6.003481E-04 -5.188199E-04
       187 -3.532393E-04 -1.226488E-03  2.642969E-03
       188  1.561983E-03  4.116926E-03 -2.340294E-03
       189 -4.263325E-04  3.964044E-03 -2.863844E-03
       190 -1.086629E-05 -2.362968E-06 -6.137928E-06
       191 -3.761504E-05 -1.512176E-05 -1.234457E-05
       192  2.190376E-05  8.301739E-06  2.400064E-05
       193 -3.628110E-05 -3.675703E-06 -7.760999E-06
       194 -7.268078E-05 -1.940933E-05 -1.043381E-05
       195 -1.328708E-04 -4.824015E-05 -1.512824E-05
       196  6.634670E-05  2.571990E-05  4.386662E-05
       197 -1.290621E-04 -2.787897E-05 -4.821537E-06
       198 -1.989483E-04 -6.109416E-05 -5.023461E-06
       199 -2.904844E-04 -1.145424E-04 -1.230350E-05
       200  1.425781E-04  5.920891E-05  5.857465E-05
       201 -2.847343E-04 -8.280986E-05  6.382854E-06
       202 -3.866055E-04 -1.412642E-04  9.160835E-06
       203 -5.075187E-04 -2.210236E-04 -2.463788E-06
       204  2.503927E-04  1.076466E-04  6.478514E-05
       205 -4.994698E-04 -1.767452E-04  2.200910E-05
       206 -6.346120E-04 -2.597398E-04  3.316067E-05
       207 -7.668550E-04 -4.043230E-04 -5.763495E-06
       208  3.704841E-04  2.056365E-04  6.718065E-05
       209 -7.630801E-04 -3.186023E-04  3.859572E-05
       210 -9.075859E-04 -4.720450E-04  8.002187E-05
       211 -1.070818E-03 -6.583470E-04 -4.020037E-05
       212  5.525954E-04  2.600504E-04  1.027484E-04
       213 -1.144466E-03 -4.792444E-04 -2.570865E-05
       214 -1.367300E-03 -6.765814E-04  5.065092E-05
       215 -1.647948E-04 -4.100781E-03 -1.974768E-03
       216  2.076785E-02 -5.219893E-03  6.404921E-03
       217 -2.697462E-02  6.318439E-03 -2.679322E-03
       218 -1.516008E-02 -3.973147E-03 -3.398456E-03
       219  2.447255E-06 -2.076942E-06 -1.911530E-05
       220  6.358876E-06 -1.870325E-06 -3.933533E-05
       221  5.091793E-06 -4.486096E-06 -3.962413E-05
       222 -8.405810E-06  6.476137E-06  6.016604E-05
       223  3.485491E-06 -7.162381E-06 -4.059629E-05
       224  7.991563E-06 -4.218891E-06 -4.067782E-05
       225  9.011357E-06 -7.023373E-06 -6.116862E-05
       226  1.288178E-05 -4.610651E-06 -7.993931E-05
       227  1.031595E-05 -8.803285E-06 -8.010962E-05
       228 -1.843092E-05  1.311204E-05  1.220426E-04
       229  9.027683E-06 -1.376726E-05 -8.261482E-05
       230  1.669176E-05 -7.393126E-06 -8.209230E-05
       231  1.527327E-05 -1.090164E-05 -1.016382E-04
       232  1.920194E-05 -6.539137E-06 -1.195475E-04
       233  1.501517E-05 -1.352801E-05 -1.198654E-04
       234 -2.792200E-05  1.929382E-05  1.825500E-04
       235  1.452633E-05 -1.949532E-05 -1.239261E-04
       236  2.624111E-05 -9.618606E-06 -1.239108E-04
       237  2.159339E-05 -1.594402E-05 -1.413522E-04
       238  2.590853E-05 -5.490708E-06 -1.575345E-04
       239  2.251932E-05 -1.536457E-05 -1.587449E-04
       240 -3.874538E-05  2.331390E-05  2.406480E-04
       241  2.166327E-05 -2.627668E-05 -1.647739E-04
       242  3.531055E-05 -1.382774E-05 -1.613844E-04
       243  2.805012E-05 -1.801855E-05 -1.774468E-04
       244  2.056186E-05  6.663087E-06 -1.947476E-04
       245  3.541102E-05 -2.716376E-05 -1.871316E-04
       246 -3.843540E-05  3.752162E-05  2.998265E-04
       247  1.658338E-06 -2.483119E-05 -2.025243E-04
       248  5.661780E-05 -2.365687E-05 -2.119037E-04
       249  2.064149E-05 -3.990919E-05 -2.134328E-04
       250 -3.664611E-05  1.348673E-04 -3.028771E-04
       251  1.564872E-04  3.773587E-05 -3.128987E-04
       252 -7.708932E-05 -4.490399E-05  4.530224E-04
       253 -1.372863E-05 -3.884276E-05 -2.862832E-04
       254  1.672069E-04 -1.125675E-04 -2.482481E-04
       255  3.835319E-05  9.154096E-05 -3.037510E-04
       256  4.997479E-03  1.786243E-02 -1.005600E-02
       257 -1.258833E-02  4.197071E-03 -4.365405E-03
       258  6.986548E-03 -8.520585E-03  6.494129E-03
       259 -2.669162E-03  5.405713E-05 -1.261608E-03
       260  9.973919E-04 -2.063782E-03 -1.788621E-03
       261  7.727825E-03  1.790980E-02 -7.121219E-03

 stresses (elem, integ.pnt.,sxx,syy,szz,sxy,sxz,syz) for set EALL and time  0.1000000E+01

         1   1  1.580125E+02 -4.888858E+01  3.736485E+01 -4.597278E+01  1.375931E+03 -1.329061E+03
         1   2  1.016952E+02 -1.019783E+02 -2.196860E+02 -4.909021E+01  1.738098E+03 -2.936839E+02
         1   3  7.822069E+01  1.231318E+01  2.389952E+02  1.950969E+01  3.446590E+02 -1.735595E+03
         1   4 -1.375015E+01 -6.952614E+01 -6.056438E+01 -4.130175E+00  4.258794E+02 -4.163194E+02
         1   5  1.277856E+02 -8.414189E+01  1.816431E+01 -2.924506E+01  1.016072E+03 -9.425187E+02
         1   6  1.383311E+02 -1.101092E+02 -1.922328E+02 -4.005188E+01  2.168108E+03 -1.377670E+01
         1   7  3.876076E+01 -1.392081E+01  2.384248E+02  1.333107E+01  1.828448E+02 -2.168850E+03
         1   8 -4.152864E+01 -1.011365E+02 -6.515415E+01 -4.412074E+00  4.297386E+02 -4.011080E+02
         2   1  1.230718E+01  7.821822E+01  2.390067E+02 -1.950905E+01  1.735597E+03  3.446601E+02
         2   2 -4.888960E+01  1.580122E+02  3.739507E+01  4.597488E+01  1.329061E+03  1.375934E+03
         2   3 -6.952910E+01 -1.375273E+01 -6.055843E+01  4.129175E+00  4.163198E+02  4.258790E+02
         2   4 -1.019773E+02  1.016933E+02 -2.196638E+02  4.909055E+01  2.936827E+02  1.738097E+03
         2   5 -1.391590E+01  3.876423E+01  2.384419E+02 -1.333043E+01  2.168848E+03  1.828434E+02
         2   6 -8.413573E+01  1.277911E+02  1.819359E+01  2.924369E+01  9.425225E+02  1.016070E+03
         2   7 -1.011355E+02 -4.152634E+01 -6.514480E+01  4.413604E+00  4.011068E+02  4.297388E+02
         2   8 -1.101060E+02  1.383371E+02 -1.922064E+02  4.005106E+01  1.377751E+01  2.168110E+03
         3   1 -1.019823E+02  1.016875E+02 -2.196913E+02  4.909126E+01 -2.936838E+02 -1.738095E+03
         3   2 -6.952736E+01 -1.375354E+01 -6.056241E+01  4.129353E+00 -4.163193E+02 -4.258790E+02
         3   3 -4.889257E+01  1.580090E+02  3.737729E+01  4.597443E+01 -1.329059E+03 -1.375931E+03
         3   4  1.231134E+01  7.822048E+01  2.390130E+02 -1.950975E+01 -1.735596E+03 -3.446603E+02
         3   5 -1.101055E+02  1.383381E+02 -1.922352E+02  4.005186E+01 -1.377698E+01 -2.168110E+03