    1C
    1UModel: beam     Date: 10-Mar-1998                                 
    1UUSER                                                              
    1UDATE              15.december.2018                                
    1UTIME              15:48:44                                        
    1UHOST                                                              
    1UPGM               CalculiX                                        
    1UVERSION           Version 2.15                             
    1UCOMPILETIME       Sa 15. Dez 14:32:01 CET 2018                    
    1UDIR                                                               
    1UDBN                                                               
    1UMAT    1EL                                                        
    1UMAT    2WATER                                                     
    2C                           278                                     1
 -1         1 0.00000E+00 0.00000E+00 0.00000E+00
 -1         2 1.00000E+00 0.00000E+00 0.00000E+00
 -1         3 1.00000E+00 1.00000E+00 0.00000E+00
 -1         4 0.00000E+00 1.00000E+00 0.00000E+00
 -1         5 0.00000E+00 0.00000E+00 8.00000E+00
 -1         6 1.00000E+00 0.00000E+00 8.00000E+00
 -1         7 1.00000E+00 1.00000E+00 8.00000E+00
 -1         8 0.00000E+00 1.00000E+00 8.00000E+00
 -1         9 2.50000E-01 0.00000E+00 0.00000E+00
 -1        10 5.00000E-01 0.00000E+00 0.00000E+00
 -1        11 7.50000E-01 0.00000E+00 0.00000E+00
 -1        12 1.00000E+00 2.50000E-01 0.00000E+00
 -1        13 1.00000E+00 5.00000E-01 0.00000E+00
 -1        14 1.00000E+00 7.50000E-01 0.00000E+00
 -1        15 7.50000E-01 1.00000E+00 0.00000E+00
 -1        16 5.00000E-01 1.00000E+00 0.00000E+00
 -1        17 2.50000E-01 1.00000E+00 0.00000E+00
 -1        18 0.00000E+00 7.50000E-01 0.00000E+00
 -1        19 0.00000E+00 5.00000E-01 0.00000E+00
 -1        20 0.00000E+00 2.50000E-01 0.00000E+00
 -1        21 2.50000E-01 0.00000E+00 8.00000E+00
 -1        22 5.00000E-01 0.00000E+00 8.00000E+00
 -1        23 7.50000E-01 0.00000E+00 8.00000E+00
 -1        24 1.00000E+00 2.50000E-01 8.00000E+00
 -1        25 1.00000E+00 5.00000E-01 8.00000E+00
 -1        26 1.00000E+00 7.50000E-01 8.00000E+00
 -1        27 7.50000E-01 1.00000E+00 8.00000E+00
 -1        28 5.00000E-01 1.00000E+00 8.00000E+00
 -1        29 2.50000E-01 1.00000E+00 8.00000E+00
 -1        30 0.00000E+00 7.50000E-01 8.00000E+00
 -1        31 0.00000E+00 5.00000E-01 8.00000E+00
 -1        32 0.00000E+00 2.50000E-01 8.00000E+00
 -1        33 1.00000E+00 0.00000E+00 5.00000E-01
 -1        34 1.00000E+00 0.00000E+00 1.00000E+00
 -1        35 1.00000E+00 0.00000E+00 1.50000E+00
 -1        36 1.00000E+00 0.00000E+00 2.00000E+00
 -1        37 1.00000E+00 0.00000E+00 2.50000E+00
 -1        38 1.00000E+00 0.00000E+00 3.00000E+00
 -1        39 1.00000E+00 0.00000E+00 3.50000E+00
 -1        40 1.00000E+00 0.00000E+00 4.00000E+00
 -1        41 1.00000E+00 0.00000E+00 4.50000E+00
 -1        42 1.00000E+00 0.00000E+00 5.00000E+00
 -1        43 1.00000E+00 0.00000E+00 5.50000E+00
 -1        44 1.00000E+00 0.00000E+00 6.00000E+00
 -1        45 1.00000E+00 0.00000E+00 6.50000E+00
 -1        46 1.00000E+00 0.00000E+00 7.00000E+00
 -1        47 1.00000E+00 0.00000E+00 7.50000E+00
 -1        48 0.00000E+00 0.00000E+00 7.50000E+00
 -1        49 0.00000E+00 0.00000E+00 7.00000E+00
 -1        50 0.00000E+00 0.00000E+00 6.50000E+00
 -1        51 0.00000E+00 0.00000E+00 6.00000E+00
 -1        52 0.00000E+00 0.00000E+00 5.50000E+00
 -1        53 0.00000E+00 0.00000E+00 5.00000E+00
 -1        54 0.00000E+00 0.00000E+00 4.50000E+00
 -1        55 0.00000E+00 0.00000E+00 4.00000E+00
 -1        56 0.00000E+00 0.00000E+00 3.50000E+00
 -1        57 0.00000E+00 0.00000E+00 3.00000E+00
 -1        58 0.00000E+00 0.00000E+00 2.50000E+00
 -1        59 0.00000E+00 0.00000E+00 2.00000E+00
 -1        60 0.00000E+00 0.00000E+00 1.50000E+00
 -1        61 0.00000E+00 0.00000E+00 1.00000E+00
 -1        62 0.00000E+00 0.00000E+00 5.00000E-01
 -1        63 1.00000E+00 1.00000E+00 5.00000E-01
 -1        64 1.00000E+00 1.00000E+00 1.00000E+00
 -1        65 1.00000E+00 1.00000E+00 1.50000E+00
 -1        66 1.00000E+00 1.00000E+00 2.00000E+00
 -1        67 1.00000E+00 1.00000E+00 2.50000E+00
 -1        68 1.00000E+00 1.00000E+00 3.00000E+00
 -1        69 1.00000E+00 1.00000E+00 3.50000E+00
 -1        70 1.00000E+00 1.00000E+00 4.00000E+00
 -1        71 1.00000E+00 1.00000E+00 4.50000E+00
 -1        72 1.00000E+00 1.00000E+00 5.00000E+00
 -1        73 1.00000E+00 1.00000E+00 5.50000E+00
 -1        74 1.00000E+00 1.00000E+00 6.00000E+00
 -1        75 1.00000E+00 1.00000E+00 6.50000E+00
 -1        76 1.00000E+00 1.00000E+00 7.00000E+00
 -1        77 1.00000E+00 1.00000E+00 7.50000E+00
 -1        78 0.00000E+00 1.00000E+00 5.00000E-01
 -1        79 0.00000E+00 1.00000E+00 1.00000E+00
 -1        80 0.00000E+00 1.00000E+00 1.50000E+00
 -1        81 0.00000E+00 1.00000E+00 2.00000E+00
 -1        82 0.00000E+00 1.00000E+00 2.50000E+00
 -1        83 0.00000E+00 1.00000E+00 3.00000E+00
 -1        84 0.00000E+00 1.00000E+00 3.50000E+00
 -1        85 0.00000E+00 1.00000E+00 4.00000E+00
 -1        86 0.00000E+00 1.00000E+00 4.50000E+00
 -1        87 0.00000E+00 1.00000E+00 5.00000E+00
 -1        88 0.00000E+00 1.00000E+00 5.50000E+00
 -1        89 0.00000E+00 1.00000E+00 6.00000E+00
 -1        90 0.00000E+00 1.00000E+00 6.50000E+00
 -1        91 0.00000E+00 1.00000E+00 7.00000E+00
 -1        92 0.00000E+00 1.00000E+00 7.50000E+00
 -1        93 5.00000E-01 2.50000E-01 0.00000E+00
 -1        94 2.50000E-01 5.00000E-01 0.00000E+00
 -1        95 5.00000E-01 5.00000E-01 0.00000E+00
 -1        96 7.50000E-01 5.00000E-01 0.00000E+00
 -1        97 5.00000E-01 7.50000E-01 0.00000E+00
 -1        98 5.00000E-01 2.50000E-01 8.00000E+00
 -1        99 2.50000E-01 5.00000E-01 8.00000E+00
 -1       100 5.00000E-01 5.00000E-01 8.00000E+00
 -1       101 7.50000E-01 5.00000E-01 8.00000E+00
 -1       102 5.00000E-01 7.50000E-01 8.00000E+00
 -1       103 5.00000E-01 0.00000E+00 5.00000E-01
 -1       104 2.50000E-01 0.00000E+00 1.00000E+00
 -1       105 5.00000E-01 0.00000E+00 1.00000E+00
 -1       106 7.50000E-01 0.00000E+00 1.00000E+00
 -1       107 5.00000E-01 0.00000E+00 1.50000E+00
 -1       108 2.50000E-01 0.00000E+00 2.00000E+00
 -1       109 5.00000E-01 0.00000E+00 2.00000E+00
 -1       110 7.50000E-01 0.00000E+00 2.00000E+00
 -1       111 5.00000E-01 0.00000E+00 2.50000E+00
 -1       112 2.50000E-01 0.00000E+00 3.00000E+00
 -1       113 5.00000E-01 0.00000E+00 3.00000E+00
 -1       114 7.50000E-01 0.00000E+00 3.00000E+00
 -1       115 5.00000E-01 0.00000E+00 3.50000E+00
 -1       116 2.50000E-01 0.00000E+00 4.00000E+00
 -1       117 5.00000E-01 0.00000E+00 4.00000E+00
 -1       118 7.50000E-01 0.00000E+00 4.00000E+00
 -1       119 5.00000E-01 0.00000E+00 4.50000E+00
 -1       120 2.50000E-01 0.00000E+00 5.00000E+00
 -1       121 5.00000E-01 0.00000E+00 5.00000E+00
 -1       122 7.50000E-01 0.00000E+00 5.00000E+00
 -1       123 5.00000E-01 0.00000E+00 5.50000E+00
 -1       124 2.50000E-01 0.00000E+00 6.00000E+00
 -1       125 5.00000E-01 0.00000E+00 6.00000E+00
 -1       126 7.50000E-01 0.00000E+00 6.00000E+00
 -1       127 5.00000E-01 0.00000E+00 6.50000E+00
 -1       128 2.50000E-01 0.00000E+00 7.00000E+00
 -1       129 5.00000E-01 0.00000E+00 7.00000E+00
 -1       130 7.50000E-01 0.00000E+00 7.00000E+00
 -1       131 5.00000E-01 0.00000E+00 7.50000E+00
 -1       132 1.00000E+00 5.00000E-01 5.00000E-01
 -1       133 1.00000E+00 2.50000E-01 1.00000E+00
 -1       134 1.00000E+00 5.00000E-01 1.00000E+00
 -1       135 1.00000E+00 7.50000E-01 1.00000E+00
 -1       136 1.00000E+00 5.00000E-01 1.50000E+00
 -1       137 1.00000E+00 2.50000E-01 2.00000E+00
 -1       138 1.00000E+00 5.00000E-01 2.00000E+00
 -1       139 1.00000E+00 7.50000E-01 2.00000E+00
 -1       140 1.00000E+00 5.00000E-01 2.50000E+00
 -1       141 1.00000E+00 2.50000E-01 3.00000E+00
 -1       142 1.00000E+00 5.00000E-01 3.00000E+00
 -1       143 1.00000E+00 7.50000E-01 3.00000E+00
 -1       144 1.00000E+00 5.00000E-01 3.50000E+00
 -1       145 1.00000E+00 2.50000E-01 4.00000E+00
 -1       146 1.00000E+00 5.00000E-01 4.00000E+00
 -1       147 1.00000E+00 7.50000E-01 4.00000E+00
 -1       148 1.00000E+00 5.00000E-01 4.50000E+00
 -1       149 1.00000E+00 2.50000E-01 5.00000E+00
 -1       150 1.00000E+00 5.00000E-01 5.00000E+00
 -1       151 1.00000E+00 7.50000E-01 5.00000E+00
 -1       152 1.00000E+00 5.00000E-01 5.50000E+00
 -1       153 1.00000E+00 2.50000E-01 6.00000E+00
 -1       154 1.00000E+00 5.00000E-01 6.00000E+00
 -1       155 1.00000E+00 7.50000E-01 6.00000E+00
 -1       156 1.00000E+00 5.00000E-01 6.50000E+00
 -1       157 1.00000E+00 2.50000E-01 7.00000E+00
 -1       158 1.00000E+00 5.00000E-01 7.00000E+00
 -1       159 1.00000E+00 7.50000E-01 7.00000E+00
 -1       160 1.00000E+00 5.00000E-01 7.50000E+00
 -1       161 5.00000E-01 1.00000E+00 5.00000E-01
 -1       162 7.50000E-01 1.00000E+00 1.00000E+00
 -1       163 5.00000E-01 1.00000E+00 1.00000E+00
 -1       164 2.50000E-01 1.00000E+00 1.00000E+00
 -1       165 5.00000E-01 1.00000E+00 1.50000E+00
 -1       166 7.50000E-01 1.00000E+00 2.00000E+00
 -1       167 5.00000E-01 1.00000E+00 2.00000E+00
 -1       168 2.50000E-01 1.00000E+00 2.00000E+00
 -1       169 5.00000E-01 1.00000E+00 2.50000E+00
 -1       170 7.50000E-01 1.00000E+00 3.00000E+00
 -1       171 5.00000E-01 1.00000E+00 3.00000E+00
 -1       172 2.50000E-01 1.00000E+00 3.00000E+00
 -1       173 5.00000E-01 1.00000E+00 3.50000E+00
 -1       174 7.50000E-01 1.00000E+00 4.00000E+00
 -1       175 5.00000E-01 1.00000E+00 4.00000E+00
 -1       176 2.50000E-01 1.00000E+00 4.00000E+00
 -1       177 5.00000E-01 1.00000E+00 4.50000E+00
 -1       178 7.50000E-01 1.00000E+00 5.00000E+00
 -1       179 5.00000E-01 1.00000E+00 5.00000E+00
 -1       180 2.50000E-01 1.00000E+00 5.00000E+00
 -1       181 5.00000E-01 1.00000E+00 5.50000E+00
 -1       182 7.50000E-01 1.00000E+00 6.00000E+00
 -1       183 5.00000E-01 1.00000E+00 6.00000E+00
 -1       184 2.50000E-01 1.00000E+00 6.00000E+00
 -1       185 5.00000E-01 1.00000E+00 6.50000E+00
 -1       186 7.50000E-01 1.00000E+00 7.00000E+00
 -1       187 5.00000E-01 1.00000E+00 7.00000E+00
 -1       188 2.50000E-01 1.00000E+00 7.00000E+00
 -1       189 5.00000E-01 1.00000E+00 7.50000E+00
 -1       190 0.00000E+00 5.00000E-01 5.00000E-01
 -1       191 0.00000E+00 7.50000E-01 1.00000E+00
 -1       192 0.00000E+00 5.00000E-01 1.00000E+00
 -1       193 0.00000E+00 2.50000E-01 1.00000E+00
 -1       194 0.00000E+00 5.00000E-01 1.50000E+00
 -1       195 0.00000E+00 7.50000E-01 2.00000E+00
 -1       196 0.00000E+00 5.00000E-01 2.00000E+00
 -1       197 0.00000E+00 2.50000E-01 2.00000E+00
 -1       198 0.00000E+00 5.00000E-01 2.50000E+00
 -1       199 0.00000E+00 7.50000E-01 3.00000E+00
 -1       200 0.00000E+00 5.00000E-01 3.00000E+00
 -1       201 0.00000E+00 2.50000E-01 3.00000E+00
 -1       202 0.00000E+00 5.00000E-01 3.50000E+00
 -1       203 0.00000E+00 7.50000E-01 4.00000E+00
 -1       204 0.00000E+00 5.00000E-01 4.00000E+00
 -1       205 0.00000E+00 2.50000E-01 4.00000E+00
 -1       206 0.00000E+00 5.00000E-01 4.50000E+00
 -1       207 0.00000E+00 7.50000E-01 5.00000E+00
 -1       208 0.00000E+00 5.00000E-01 5.00000E+00
 -1       209 0.00000E+00 2.50000E-01 5.00000E+00
 -1       210 0.00000E+00 5.00000E-01 5.50000E+00
 -1       211 0.00000E+00 7.50000E-01 6.00000E+00
 -1       212 0.00000E+00 5.00000E-01 6.00000E+00
 -1       213 0.00000E+00 2.50000E-01 6.00000E+00
 -1       214 0.00000E+00 5.00000E-01 6.50000E+00
 -1       215 0.00000E+00 7.50000E-01 7.00000E+00
 -1       216 0.00000E+00 5.00000E-01 7.00000E+00
 -1       217 0.00000E+00 2.50000E-01 7.00000E+00
 -1       218 0.00000E+00 5.00000E-01 7.50000E+00
 -1       219 5.00000E-01 5.00000E-01 5.00000E-01
 -1       220 5.00000E-01 2.50000E-01 1.00000E+00
 -1       221 2.50000E-01 5.00000E-01 1.00000E+00
 -1       222 5.00000E-01 5.00000E-01 1.00000E+00
 -1       223 7.50000E-01 5.00000E-01 1.00000E+00
 -1       224 5.00000E-01 7.50000E-01 1.00000E+00
 -1       225 5.00000E-01 5.00000E-01 1.50000E+00
 -1       226 5.00000E-01 2.50000E-01 2.00000E+00
 -1       227 2.50000E-01 5.00000E-01 2.00000E+00
 -1       228 5.00000E-01 5.00000E-01 2.00000E+00
 -1       229 7.50000E-01 5.00000E-01 2.00000E+00
 -1       230 5.00000E-01 7.50000E-01 2.00000E+00
 -1       231 5.00000E-01 5.00000E-01 2.50000E+00
 -1       232 5.00000E-01 2.50000E-01 3.00000E+00
 -1       233 2.50000E-01 5.00000E-01 3.00000E+00
 -1       234 5.00000E-01 5.00000E-01 3.00000E+00
 -1       235 7.50000E-01 5.00000E-01 3.00000E+00
 -1       236 5.00000E-01 7.50000E-01 3.00000E+00
 -1       237 5.00000E-01 5.00000E-01 3.50000E+00
 -1       238 5.00000E-01 2.50000E-01 4.00000E+00
 -1       239 2.50000E-01 5.00000E-01 4.00000E+00
 -1       240 5.00000E-01 5.00000E-01 4.00000E+00
 -1       241 7.50000E-01 5.00000E-01 4.00000E+00
 -1       242 5.00000E-01 7.50000E-01 4.00000E+00
 -1       243 5.00000E-01 5.00000E-01 4.50000E+00
 -1       244 5.00000E-01 2.50000E-01 5.00000E+00
 -1       245 2.50000E-01 5.00000E-01 5.00000E+00
 -1       246 5.00000E-01 5.00000E-01 5.00000E+00
 -1       247 7.50000E-01 5.00000E-01 5.00000E+00
 -1       248 5.00000E-01 7.50000E-01 5.00000E+00
 -1       249 5.00000E-01 5.00000E-01 5.50000E+00
 -1       250 5.00000E-01 2.50000E-01 6.00000E+00
 -1       251 2.50000E-01 5.00000E-01 6.00000E+00
 -1       252 5.00000E-01 5.00000E-01 6.00000E+00
 -1       253 7.50000E-01 5.00000E-01 6.00000E+00
 -1       254 5.00000E-01 7.50000E-01 6.00000E+00
 -1       255 5.00000E-01 5.00000E-01 6.50000E+00
 -1       256 5.00000E-01 2.50000E-01 7.00000E+00
 -1       257 2.50000E-01 5.00000E-01 7.00000E+00
 -1       258 5.00000E-01 5.00000E-01 7.00000E+00
 -1       259 7.50000E-01 5.00000E-01 7.00000E+00
 -1       260 5.00000E-01 7.50000E-01 7.00000E+00
 -1       261 5.00000E-01 5.00000E-01 7.50000E+00
 -1       263 5.00000E-01 1.50000E+00 5.00000E-01
 -1       264 5.00000E-01 1.50000E+00 1.50000E+00
 -1       265 5.00000E-01 1.50000E+00 2.50000E+00
 -1       266 5.00000E-01 1.50000E+00 3.50000E+00
 -1       267 5.00000E-01 1.50000E+00 4.50000E+00
 -1       268 5.00000E-01 1.50000E+00 5.50000E+00
 -1       269 5.00000E-01 1.50000E+00 6.50000E+00
 -1       270 5.00000E-01 1.50000E+00 7.50000E+00
 -1       271 5.00000E-01 1.50000E+00 8.50000E+00
 -1       272 5.00000E-01 1.50000E+00 1.00000E+00
 -1       273 5.00000E-01 1.50000E+00 2.00000E+00
 -1       274 5.00000E-01 1.50000E+00 3.00000E+00
 -1       275 5.00000E-01 1.50000E+00 4.00000E+00
 -1       276 5.00000E-01 1.50000E+00 5.00000E+00
 -1       277 5.00000E-01 1.50000E+00 6.00000E+00
 -1       278 5.00000E-01 1.50000E+00 7.00000E+00
 -1       279 5.00000E-01 1.50000E+00 8.00000E+00
 -3
    3C                            40                                     1
 -1         1    4    0    1
 -2         1        10        95        19        61       105       222       192         9        93
 -2        94        20        62       103       219       190       104       220       221       193
 -1         2    4    0    1
 -2        10         2        13        95       105        34       134       222        11        12
 -2        96        93       103        33       132       219       106       133       223       220
 -1         3    4    0    1
 -2        19        95        16         4       192       222       163        79        94        97
 -2        17        18       190       219       161        78       221       224       164       191
 -1         4    4    0    1
 -2        95        13         3        16       222       134        64       163        96        14
 -2        15        97       219       132        63       161       223       135       162       224
 -1         5    4    0    1
 -2        61       105       222       192        59       109       228       196       104       220
 -2       221       193        60       107       225       194       108       226       227       197
 -1         6    4    0    1
 -2       105        34       134       222       109        36       138       228       106       133
 -2       223       220       107        35       136       225       110       137       229       226
 -1         7    4    0    1
 -2       192       222       163        79       196       228       167        81       221       224
 -2       164       191       194       225       165        80       227       230       168       195
 -1         8    4    0    1
 -2       222       134        64       163       228       138        66       167       223       135
 -2       162       224       225       136        65       165       229       139       166       230
 -1         9    4    0    1
 -2        59       109       228       196        57       113       234       200       108       226
 -2       227       197        58       111       231       198       112       232       233       201
 -1        10    4    0    1
 -2       109        36       138       228       113        38       142       234       110       137
 -2       229       226       111        37       140       231       114       141       235       232
 -1        11    4    0    1
 -2       196       228       167        81       200       234       171        83       227       230
 -2       168       195       198       231       169        82       233       236       172       199
 -1        12    4    0    1
 -2       228       138        66       167       234       142        68       171       229       139
 -2       166       230       231       140        67       169       235       143       170       236
 -1        13    4    0    1
 -2        57       113       234       200        55       117       240       204       112       232
 -2       233       201        56       115       237       202       116       238       239       205
 -1        14    4    0    1
 -2       113        38       142       234       117        40       146       240       114       141
 -2       235       232       115        39       144       237       118       145       241       238
 -1        15    4    0    1
 -2       200       234       171        83       204       240       175        85       233       236
 -2       172       199       202       237       173        84       239       242       176       203
 -1        16    4    0    1
 -2       234       142        68       171       240       146        70       175       235       143
 -2       170       236       237       144        69       173       241       147       174       242
 -1        17    4    0    1
 -2        55       117       240       204        53       121       246       208       116       238
 -2       239       205        54       119       243       206       120       244       245       209
 -1        18    4    0    1
 -2       117        40       146       240       121        42       150       246       118       145
 -2       241       238       119        41       148       243       122       149       247       244
 -1        19    4    0    1
 -2       204       240       175        85       208       246       179        87       239       242
 -2       176       203       206       243       177        86       245       248       180       207
 -1        20    4    0    1
 -2       240       146        70       175       246       150        72       179       241       147
 -2       174       242       243       148        71       177       247       151       178       248
 -1        21    4    0    1
 -2        53       121       246       208        51       125       252       212       120       244
 -2       245       209        52       123       249       210       124       250       251       213
 -1        22    4    0    1
 -2       121        42       150       246       125        44       154       252       122       149
 -2       247       244       123        43       152       249       126       153       253       250
 -1        23    4    0    1
 -2       208       246       179        87       212       252       183        89       245       248
 -2       180       207       210       249       181        88       251       254       184       211
 -1        24    4    0    1
 -2       246       150        72       179       252       154        74       183       247       151
 -2       178       248       249       152        73       181       253       155       182       254
 -1        25    4    0    1
 -2        51       125       252       212        49       129       258       216       124       250
 -2       251       213        50       127       255       214       128       256       257       217
 -1        26    4    0    1
 -2       125        44       154       252       129        46       158       258       126       153
 -2       253       250       127        45       156       255       130       157       259       256
 -1        27    4    0    1
 -2       212       252       183        89       216       258       187        91       251       254
 -2       184       211       214       255       185        90       257       260       188       215
 -1        28    4    0    1
 -2       252       154        74       183       258       158        76       187       253       155
 -2       182       254       255       156        75       185       259       159       186       260
 -1        29    4    0    1
 -2        49       129       258       216         5        22       100        31       128       256
 -2       257       217        48       131       261       218        21        98        99        32
 -1        30    4    0    1
 -2       129        46       158       258        22         6        25       100       130       157
 -2       259       256       131        47       160       261        23        24       101        98
 -1        31    4    0    1
 -2       216       258       187        91        31       100        28         8       257       260
 -2       188       215       218       261       189        92        99       102        29        30
 -1        32    4    0    1
 -2       258       158        76       187       100        25         7        28       259       159
 -2       186       260       261       160        77       189       101        26        27       102
 -1        33   12    0    2
 -2       263       264       272
 -1        34   12    0    2
 -2       264       265       273
 -1        35   12    0    2
 -2       265       266       274
 -1        36   12    0    2
 -2       266       267       275
 -1        37   12    0    2
 -2       267       268       276
 -1        38   12    0    2
 -2       268       269       277
 -1        39   12    0    2
 -2       269       270       278
 -1        40   12    0    2
 -2       270       271       279
 -3
    1PSTEP                         1           1           1          
  100CL  101 1.000000000         278                     0    1           1
 -4  NDTEMP      1    1
 -5  T           1    1    0    0
 -1         1 2.00000E+01
 -1         2 2.00000E+01
 -1         3 7.92442E+01
 -1         4 7.92442E+01
 -1         5 2.00000E+01
 -1         6 2.00000E+01
 -1         7 2.83812E+01
 -1         8 2.83812E+01
 -1         9 2.00000E+01
 -1        10 2.00000E+01
 -1        11 2.00000E+01
 -1        12 3.57095E+01
 -1        13 5.20599E+01
 -1        14 6.48328E+01
 -1        15 7.92442E+01
 -1        16 7.92442E+01
 -1        17 7.92442E+01
 -1        18 6.48328E+01
 -1        19 5.20599E+01
 -1        20 3.57095E+01
 -1        21 2.00000E+01
 -1        22 2.00000E+01
 -1        23 2.00000E+01
 -1        24 2.18763E+01
 -1        25 2.37104E+01
 -1        26 2.61212E+01
 -1        27 2.83812E+01
 -1        28 2.83812E+01
 -1        29 2.83812E+01
 -1        30 2.61212E+01
 -1        31 2.37104E+01
 -1        32 2.18763E+01
 -1        33 2.00000E+01
 -1        34 2.00000E+01
 -1        35 2.00000E+01
 -1        36 2.00000E+01
 -1        37 2.00000E+01
 -1        38 2.00000E+01
 -1        39 2.00000E+01
 -1        40 2.00000E+01
 -1        41 2.00000E+01
 -1        42 2.00000E+01
 -1        43 2.00000E+01
 -1        44 2.00000E+01
 -1        45 2.00000E+01
 -1        46 2.00000E+01
 -1        47 2.00000E+01
 -1        48 2.00000E+01
 -1        49 2.00000E+01
 -1        50 2.00000E+01
 -1        51 2.00000E+01
 -1        52 2.00000E+01
 -1        53 2.00000E+01
 -1        54 2.00000E+01
 -1        55 2.00000E+01
 -1        56 2.00000E+01
 -1        57 2.00000E+01
 -1        58 2.00000E+01
 -1        59 2.00000E+01
 -1        60 2.00000E+01
 -1        61 2.00000E+01
 -1        62 2.00000E+01
 -1        63 8.43265E+01
 -1        64 6.69691E+01
 -1        65 5.32334E+01
 -1        66 4.71323E+01
 -1        67 3.77909E+01
 -1        68 3.57685E+01
 -1        69 3.03174E+01
 -1        70 3.13518E+01
 -1        71 2.87689E+01
 -1        72 3.58870E+01
 -1        73 4.42488E+01
 -1        74 3.69956E+01
 -1        75 3.25809E+01
 -1        76 3.06678E+01
 -1        77 2.73179E+01
 -1        78 8.43265E+01
 -1        79 6.69691E+01
 -1        80 5.32334E+01
 -1        81 4.71323E+01
 -1        82 3.77909E+01
 -1        83 3.57685E+01
 -1        84 3.03174E+01
 -1        85 3.13518E+01
 -1        86 2.87689E+01
 -1        87 3.58870E+01
 -1        88 4.42488E+01
 -1        89 3.69956E+01
 -1        90 3.25809E+01
 -1        91 3.06678E+01
 -1        92 2.73179E+01
 -1        93 3.57095E+01
 -1        94 5.20599E+01
 -1        95 5.20599E+01
 -1        96 5.20599E+01
 -1        97 6.48328E+01
 -1        98 2.18763E+01
 -1        99 2.37104E+01
 -1       100 2.37104E+01
 -1       101 2.37104E+01
 -1       102 2.61212E+01
 -1       103 2.00000E+01
 -1       104 2.00000E+01
 -1       105 2.00000E+01
 -1       106 2.00000E+01
 -1       107 2.00000E+01
 -1       108 2.00000E+01
 -1       109 2.00000E+01
 -1       110 2.00000E+01
 -1       111 2.00000E+01
 -1       112 2.00000E+01
 -1       113 2.00000E+01
 -1       114 2.00000E+01
 -1       115 2.00000E+01
 -1       116 2.00000E+01
 -1       117 2.00000E+01
 -1       118 2.00000E+01
 -1       119 2.00000E+01
 -1       120 2.00000E+01
 -1       121 2.00000E+01
 -1       122 2.00000E+01
 -1       123 2.00000E+01
 -1       124 2.00000E+01
 -1       125 2.00000E+01
 -1       126 2.00000E+01
 -1       127 2.00000E+01
 -1       128 2.00000E+01
 -1       129 2.00000E+01
 -1       130 2.00000E+01
 -1       131 2.00000E+01
 -1       132 4.83700E+01
 -1       133 3.21334E+01
 -1       134 4.43601E+01
 -1       135 5.55140E+01
 -1       136 3.80625E+01
 -1       137 2.65366E+01
 -1       138 3.28051E+01
 -1       139 4.02961E+01
 -1       140 3.00724E+01
 -1       141 2.35616E+01
 -1       142 2.70821E+01
 -1       143 3.15182E+01
 -1       144 2.61638E+01
 -1       145 2.25296E+01
 -1       146 2.47909E+01
 -1       147 2.84048E+01
 -1       148 2.61282E+01
 -1       149 2.40552E+01
 -1       150 2.82271E+01
 -1       151 3.19172E+01
 -1       152 2.93154E+01
 -1       153 2.44640E+01
 -1       154 2.91650E+01
 -1       155 3.27913E+01
 -1       156 2.67983E+01
 -1       157 2.25729E+01
 -1       158 2.49769E+01
 -1       159 2.80199E+01
 -1       160 2.43818E+01
 -1       161 8.43265E+01
 -1       162 6.69691E+01
 -1       163 6.69691E+01
 -1       164 6.69691E+01
 -1       165 5.32334E+01
 -1       166 4.71323E+01
 -1       167 4.71323E+01
 -1       168 4.71323E+01
 -1       169 3.77909E+01
 -1       170 3.57685E+01
 -1       171 3.57685E+01
 -1       172 3.57685E+01
 -1       173 3.03174E+01
 -1       174 3.13518E+01
 -1       175 3.13518E+01
 -1       176 3.13518E+01
 -1       177 2.87689E+01
 -1       178 3.58870E+01
 -1       179 3.58870E+01
 -1       180 3.58870E+01
 -1       181 4.42488E+01
 -1       182 3.69956E+01
 -1       183 3.69956E+01
 -1       184 3.69956E+01
 -1       185 3.25809E+01
 -1       186 3.06678E+01
 -1       187 3.06678E+01
 -1       188 3.06678E+01
 -1       189 2.73179E+01
 -1       190 4.83700E+01
 -1       191 5.55140E+01
 -1       192 4.43601E+01
 -1       193 3.21334E+01
 -1       194 3.80625E+01
 -1       195 4.02961E+01
 -1       196 3.28051E+01
 -1       197 2.65366E+01
 -1       198 3.00724E+01
 -1       199 3.15182E+01
 -1       200 2.70821E+01
 -1       201 2.35616E+01
 -1       202 2.61638E+01
 -1       203 2.84048E+01
 -1       204 2.47909E+01
 -1       205 2.25296E+01
 -1       206 2.61282E+01
 -1       207 3.19172E+01
 -1       208 2.82271E+01
 -1       209 2.40552E+01
 -1       210 2.93154E+01
 -1       211 3.27913E+01
 -1       212 2.91650E+01
 -1       213 2.44640E+01
 -1       214 2.67983E+01
 -1       215 2.80199E+01
 -1       216 2.49769E+01
 -1       217 2.25729E+01
 -1       218 2.43818E+01
 -1       219 4.83700E+01
 -1       220 3.21334E+01
 -1       221 4.43601E+01
 -1       222 4.43601E+01
 -1       223 4.43601E+01
 -1       224 5.55140E+01
 -1       225 3.80625E+01
 -1       226 2.65366E+01
 -1       227 3.28051E+01
 -1       228 3.28051E+01
 -1       229 3.28051E+01
 -1       230 4.02961E+01
 -1       231 3.00724E+01
 -1       232 2.35616E+01
 -1       233 2.70821E+01
 -1       234 2.70821E+01
 -1       235 2.70821E+01
 -1       236 3.15182E+01
 -1       237 2.61638E+01
 -1       238 2.25296E+01
 -1       239 2.47909E+01
 -1       240 2.47909E+01
 -1       241 2.47909E+01
 -1       242 2.84048E+01
 -1       243 2.61282E+01
 -1       244 2.40552E+01
 -1       245 2.82271E+01
 -1       246 2.82271E+01
 -1       247 2.82271E+01
 -1       248 3.19172E+01
 -1       249 2.93154E+01
 -1       250 2.44640E+01
 -1       251 2.91650E+01
 -1       252 2.91650E+01
 -1       253 2.91650E+01
 -1       254 3.27913E+01
 -1       255 2.67983E+01
 -1       256 2.25729E+01
 -1       257 2.49769E+01
 -1       258 2.49769E+01
 -1       259 2.49769E+01
 -1       260 2.80199E+01