    1C
    1UModel: beam     Date: 10-Mar-1998                                 
    1UUSER                                                              
    1UDATE              15.december.2018                                
    1UTIME              15:48:30                                        
    1UHOST                                                              
    1UPGM               CalculiX                                        
    1UVERSION           Version 2.15                             
    1UCOMPILETIME       Sa 15. Dez 14:32:01 CET 2018                    
    1UDIR                                                               
    1UDBN                                                               
    1UMAT    1EL                                                        
    2C                           111                                     1
 -1        34 1.00000E+00 0.00000E+00 1.00000E+00
 -1        35 1.00000E+00 0.00000E+00 1.50000E+00
 -1        36 1.00000E+00 0.00000E+00 2.00000E+00
 -1        37 1.00000E+00 0.00000E+00 2.50000E+00
 -1        38 1.00000E+00 0.00000E+00 3.00000E+00
 -1        39 1.00000E+00 0.00000E+00 3.50000E+00
 -1        40 1.00000E+00 0.00000E+00 4.00000E+00
 -1        55 0.00000E+00 0.00000E+00 4.00000E+00
 -1        56 0.00000E+00 0.00000E+00 3.50000E+00
 -1        57 0.00000E+00 0.00000E+00 3.00000E+00
 -1        58 0.00000E+00 0.00000E+00 2.50000E+00
 -1        59 0.00000E+00 0.00000E+00 2.00000E+00
 -1        60 0.00000E+00 0.00000E+00 1.50000E+00
 -1        61 0.00000E+00 0.00000E+00 1.00000E+00
 -1        64 1.00000E+00 1.50000E+00 1.00000E+00
 -1        65 1.00000E+00 1.50000E+00 1.50000E+00
 -1        66 1.00000E+00 1.50000E+00 2.00000E+00
 -1        67 1.00000E+00 1.50000E+00 2.50000E+00
 -1        68 1.00000E+00 1.50000E+00 3.00000E+00
 -1        69 1.00000E+00 1.50000E+00 3.50000E+00
 -1        70 1.00000E+00 1.50000E+00 4.00000E+00
 -1        79 0.00000E+00 1.50000E+00 1.00000E+00
 -1        80 0.00000E+00 1.50000E+00 1.50000E+00
 -1        81 0.00000E+00 1.50000E+00 2.00000E+00
 -1        82 0.00000E+00 1.50000E+00 2.50000E+00
 -1        83 0.00000E+00 1.50000E+00 3.00000E+00
 -1        84 0.00000E+00 1.50000E+00 3.50000E+00
 -1        85 0.00000E+00 1.50000E+00 4.00000E+00
 -1       104 2.50000E-01 0.00000E+00 1.00000E+00
 -1       105 5.00000E-01 0.00000E+00 1.00000E+00
 -1       106 7.50000E-01 0.00000E+00 1.00000E+00
 -1       107 5.00000E-01 0.00000E+00 1.50000E+00
 -1       108 2.50000E-01 0.00000E+00 2.00000E+00
 -1       109 5.00000E-01 0.00000E+00 2.00000E+00
 -1       110 7.50000E-01 0.00000E+00 2.00000E+00
 -1       111 5.00000E-01 0.00000E+00 2.50000E+00
 -1       112 2.50000E-01 0.00000E+00 3.00000E+00
 -1       113 5.00000E-01 0.00000E+00 3.00000E+00
 -1       114 7.50000E-01 0.00000E+00 3.00000E+00
 -1       115 5.00000E-01 0.00000E+00 3.50000E+00
 -1       116 2.50000E-01 0.00000E+00 4.00000E+00
 -1       117 5.00000E-01 0.00000E+00 4.00000E+00
 -1       118 7.50000E-01 0.00000E+00 4.00000E+00
 -1       133 1.00000E+00 3.75000E-01 1.00000E+00
 -1       134 1.00000E+00 7.50000E-01 1.00000E+00
 -1       135 1.00000E+00 1.12500E+00 1.00000E+00
 -1       136 1.00000E+00 7.50000E-01 1.50000E+00
 -1       137 1.00000E+00 3.75000E-01 2.00000E+00
 -1       138 1.00000E+00 7.50000E-01 2.00000E+00
 -1       139 1.00000E+00 1.12500E+00 2.00000E+00
 -1       140 1.00000E+00 7.50000E-01 2.50000E+00
 -1       141 1.00000E+00 3.75000E-01 3.00000E+00
 -1       142 1.00000E+00 7.50000E-01 3.00000E+00
 -1       143 1.00000E+00 1.12500E+00 3.00000E+00
 -1       144 1.00000E+00 7.50000E-01 3.50000E+00
 -1       145 1.00000E+00 3.75000E-01 4.00000E+00
 -1       146 1.00000E+00 7.50000E-01 4.00000E+00
 -1       147 1.00000E+00 1.12500E+00 4.00000E+00
 -1       162 7.50000E-01 1.50000E+00 1.00000E+00
 -1       163 5.00000E-01 1.50000E+00 1.00000E+00
 -1       164 2.50000E-01 1.50000E+00 1.00000E+00
 -1       165 5.00000E-01 1.50000E+00 1.50000E+00
 -1       166 7.50000E-01 1.50000E+00 2.00000E+00
 -1       167 5.00000E-01 1.50000E+00 2.00000E+00
 -1       168 2.50000E-01 1.50000E+00 2.00000E+00
 -1       169 5.00000E-01 1.50000E+00 2.50000E+00
 -1       170 7.50000E-01 1.50000E+00 3.00000E+00
 -1       171 5.00000E-01 1.50000E+00 3.00000E+00
 -1       172 2.50000E-01 1.50000E+00 3.00000E+00
 -1       173 5.00000E-01 1.50000E+00 3.50000E+00
 -1       174 7.50000E-01 1.50000E+00 4.00000E+00
 -1       175 5.00000E-01 1.50000E+00 4.00000E+00
 -1       176 2.50000E-01 1.50000E+00 4.00000E+00
 -1       191 0.00000E+00 1.12500E+00 1.00000E+00
 -1       192 0.00000E+00 7.50000E-01 1.00000E+00
 -1       193 0.00000E+00 3.75000E-01 1.00000E+00
 -1       194 0.00000E+00 7.50000E-01 1.50000E+00
 -1       195 0.00000E+00 1.12500E+00 2.00000E+00
 -1       196 0.00000E+00 7.50000E-01 2.00000E+00
 -1       197 0.00000E+00 3.75000E-01 2.00000E+00
 -1       198 0.00000E+00 7.50000E-01 2.50000E+00
 -1       199 0.00000E+00 1.12500E+00 3.00000E+00
 -1       200 0.00000E+00 7.50000E-01 3.00000E+00
 -1       201 0.00000E+00 3.75000E-01 3.00000E+00
 -1       202 0.00000E+00 7.50000E-01 3.50000E+00
 -1       203 0.00000E+00 1.12500E+00 4.00000E+00
 -1       204 0.00000E+00 7.50000E-01 4.00000E+00
 -1       205 0.00000E+00 3.75000E-01 4.00000E+00
 -1       220 5.00000E-01 3.75000E-01 1.00000E+00
 -1       221 2.50000E-01 7.50000E-01 1.00000E+00
 -1       222 5.00000E-01 7.50000E-01 1.00000E+00
 -1       223 7.50000E-01 7.50000E-01 1.00000E+00
 -1       224 5.00000E-01 1.12500E+00 1.00000E+00
 -1       225 5.00000E-01 7.50000E-01 1.50000E+00
 -1       226 5.00000E-01 3.75000E-01 2.00000E+00
 -1       227 2.50000E-01 7.50000E-01 2.00000E+00
 -1       228 5.00000E-01 7.50000E-01 2.00000E+00
 -1       229 7.50000E-01 7.50000E-01 2.00000E+00
 -1       230 5.00000E-01 1.12500E+00 2.00000E+00
 -1       231 5.00000E-01 7.50000E-01 2.50000E+00
 -1       232 5.00000E-01 3.75000E-01 3.00000E+00
 -1       233 2.50000E-01 7.50000E-01 3.00000E+00
 -1       234 5.00000E-01 7.50000E-01 3.00000E+00
 -1       235 7.50000E-01 7.50000E-01 3.00000E+00
 -1       236 5.00000E-01 1.12500E+00 3.00000E+00
 -1       237 5.00000E-01 7.50000E-01 3.50000E+00
 -1       238 5.00000E-01 3.75000E-01 4.00000E+00
 -1       239 2.50000E-01 7.50000E-01 4.00000E+00
 -1       240 5.00000E-01 7.50000E-01 4.00000E+00
 -1       241 7.50000E-01 7.50000E-01 4.00000E+00
 -1       242 5.00000E-01 1.12500E+00 4.00000E+00
 -3
    3C                            12                                     1
 -1         5    4    0    1
 -2        61       105       222       192        59       109       228       196       104       220
 -2       221       193        60       107       225       194       108       226       227       197
 -1         6    4    0    1
 -2       105        34       134       222       109        36       138       228       106       133
 -2       223       220       107        35       136       225       110       137       229       226
 -1         7    4    0    1
 -2       192       222       163        79       196       228       167        81       221       224
 -2       164       191       194       225       165        80       227       230       168       195
 -1         8    4    0    1
 -2       222       134        64       163       228       138        66       167       223       135
 -2       162       224       225       136        65       165       229       139       166       230
 -1         9    4    0    1
 -2        59       109       228       196        57       113       234       200       108       226
 -2       227       197        58       111       231       198       112       232       233       201
 -1        10    4    0    1
 -2       109        36       138       228       113        38       142       234       110       137
 -2       229       226       111        37       140       231       114       141       235       232
 -1        11    4    0    1
 -2       196       228       167        81       200       234       171        83       227       230
 -2       168       195       198       231       169        82       233       236       172       199
 -1        12    4    0    1
 -2       228       138        66       167       234       142        68       171       229       139
 -2       166       230       231       140        67       169       235       143       170       236
 -1        13    4    0    1
 -2        57       113       234       200        55       117       240       204       112       232
 -2       233       201        56       115       237       202       116       238       239       205
 -1        14    4    0    1
 -2       113        38       142       234       117        40       146       240       114       141
 -2       235       232       115        39       144       237       118       145       241       238
 -1        15    4    0    1
 -2       200       234       171        83       204       240       175        85       233       236
 -2       172       199       202       237       173        84       239       242       176       203
 -1        16    4    0    1
 -2       234       142        68       171       240       146        70       175       235       143
 -2       170       236       237       144        69       173       241       147       174       242
 -3
    1PSTEP                         1           1           1          
  100CL  101 1.000000000         111                     0    1           1
 -4  DISP        4    1
 -5  D1          1    2    1    0
 -5  D2          1    2    2    0
 -5  D3          1    2    3    0
 -5  ALL         1    2    0    0    1ALL
 -1        34-5.49569E-03 3.56827E-02 4.58944E-02
 -1        35-6.22365E-03 7.65302E-02 6.74781E-02
 -1        36-5.57235E-03 1.29596E-01 8.73260E-02
 -1        37-5.26302E-03 1.96325E-01 1.05495E-01
 -1        38-4.72485E-03 2.74206E-01 1.22148E-01
 -1        39-4.28577E-03 3.62817E-01 1.37235E-01
 -1        40-3.80591E-03 4.60901E-01 1.50747E-01
 -1        55 3.80591E-03 4.60901E-01 1.50747E-01
 -1        56 4.28577E-03 3.62817E-01 1.37235E-01
 -1        57 4.72485E-03 2.74206E-01 1.22148E-01
 -1        58 5.26302E-03 1.96325E-01 1.05495E-01
 -1        59 5.57235E-03 1.29596E-01 8.73260E-02
 -1        60 6.22365E-03 7.65302E-02 6.74781E-02
 -1        61 5.49569E-03 3.56827E-02 4.58944E-02
 -1        64 5.49569E-03 3.56827E-02-4.58944E-02
 -1        65 6.22365E-03 7.65302E-02-6.74781E-02
 -1        66 5.57235E-03 1.29596E-01-8.73260E-02
 -1        67 5.26302E-03 1.96325E-01-1.05495E-01
 -1        68 4.72485E-03 2.74206E-01-1.22148E-01
 -1        69 4.28577E-03 3.62817E-01-1.37235E-01
 -1        70 3.80591E-03 4.60901E-01-1.50747E-01
 -1        79-5.49569E-03 3.56827E-02-4.58944E-02
 -1        80-6.22365E-03 7.65302E-02-6.74781E-02
 -1        81-5.57235E-03 1.29596E-01-8.73260E-02
 -1        82-5.26302E-03 1.96325E-01-1.05495E-01
 -1        83-4.72485E-03 2.74206E-01-1.22148E-01
 -1        84-4.28577E-03 3.62817E-01-1.37235E-01
 -1        85-3.80591E-03 4.60901E-01-1.50747E-01
 -1       104 2.74287E-03 3.75252E-02 4.62916E-02
 -1       105 1.55601E-14 3.79529E-02 4.66743E-02
 -1       106-2.74287E-03 3.75252E-02 4.62916E-02
 -1       107 4.06209E-14 7.84820E-02 6.75356E-02
 -1       108 2.77935E-03 1.31040E-01 8.75027E-02
 -1       109 7.69346E-14 1.31622E-01 8.75678E-02
 -1       110-2.77935E-03 1.31040E-01 8.75027E-02
 -1       111 1.22080E-13 1.98035E-01 1.05632E-01
 -1       112 2.36271E-03 2.75419E-01 1.22285E-01
 -1       113 1.76690E-13 2.75818E-01 1.22303E-01
 -1       114-2.36271E-03 2.75419E-01 1.22285E-01
 -1       115 2.38957E-13 3.64251E-01 1.37383E-01
 -1       116 1.90382E-03 4.61828E-01 1.50873E-01
 -1       117 3.09130E-13 4.62117E-01 1.50884E-01
 -1       118-1.90382E-03 4.61828E-01 1.50873E-01
 -1       133-2.76193E-03 3.23771E-02 2.24008E-02
 -1       134 2.53855E-14 3.23361E-02-2.29604E-14
 -1       135 2.76193E-03 3.23771E-02-2.24008E-02
 -1       136 5.44131E-14 7.14664E-02-3.35811E-14
 -1       137-2.78635E-03 1.26751E-01 4.30860E-02
 -1       138 9.31589E-14 1.25843E-01-4.36038E-14
 -1       139 2.78635E-03 1.26751E-01-4.30860E-02
 -1       140 1.41792E-13 1.92293E-01-5.28312E-14
 -1       141-2.36407E-03 2.71553E-01 6.05487E-02
 -1       142 1.98971E-13 2.70741E-01-6.14917E-14
 -1       143 2.36407E-03 2.71553E-01-6.05487E-02
 -1       144 2.64432E-13 3.59596E-01-6.91195E-14
 -1       145-1.90301E-03 4.58757E-01 7.48322E-02
 -1       146 3.36968E-13 4.58023E-01-7.59987E-14
 -1       147 1.90301E-03 4.58757E-01-7.48322E-02
 -1       162 2.74287E-03 3.75252E-02-4.62916E-02
 -1       163 2.65167E-14 3.79529E-02-4.66743E-02
 -1       164-2.74287E-03 3.75252E-02-4.62916E-02
 -1       165 5.77631E-14 7.84820E-02-6.75356E-02
 -1       166 2.77935E-03 1.31040E-01-8.75027E-02
 -1       167 1.00532E-13 1.31622E-01-8.75678E-02
 -1       168-2.77935E-03 1.31040E-01-8.75027E-02
 -1       169 1.52281E-13 1.98035E-01-1.05632E-01
 -1       170 2.36271E-03 2.75419E-01-1.22285E-01
 -1       171 2.13544E-13 2.75818E-01-1.22303E-01
 -1       172-2.36271E-03 2.75419E-01-1.22285E-01
 -1       173 2.82194E-13 3.64251E-01-1.37383E-01
 -1       174 1.90382E-03 4.61828E-01-1.50873E-01
 -1       175 3.59282E-13 4.62117E-01-1.50884E-01
 -1       176-1.90382E-03 4.61828E-01-1.50873E-01
 -1       191-2.76193E-03 3.23771E-02-2.24008E-02
 -1       192 2.54006E-14 3.23361E-02 2.26511E-14
 -1       193 2.76193E-03 3.23771E-02 2.24008E-02
 -1       194 5.43820E-14 7.14664E-02 3.30690E-14
 -1       195-2.78635E-03 1.26751E-01-4.30860E-02
 -1       196 9.30259E-14 1.25843E-01 4.29890E-14
 -1       197 2.78635E-03 1.26751E-01 4.30860E-02
 -1       198 1.41625E-13 1.92293E-01 5.21100E-14
 -1       199-2.36407E-03 2.71553E-01-6.05487E-02
 -1       200 1.98689E-13 2.70741E-01 6.04933E-14
 -1       201 2.36407E-03 2.71553E-01 6.05487E-02
 -1       202 2.64209E-13 3.59596E-01 6.80677E-14
 -1       203-1.90301E-03 4.58757E-01-7.48322E-02
 -1       204 3.36607E-13 4.58023E-01 7.51556E-14
 -1       205 1.90301E-03 4.58757E-01 7.48322E-02
 -1       220 2.10892E-14 3.44574E-02 2.27698E-02
 -1       221 2.42681E-14 3.40439E-02 1.10456E-14
 -1       222 2.42872E-14 3.43176E-02-2.38387E-16
 -1       223 2.42501E-14 3.40439E-02-1.14138E-14
 -1       224 2.65350E-14 3.44574E-02-2.27698E-02
 -1       225 8.32091E-15 7.35595E-02-1.09611E-16
 -1       226 3.40486E-14 1.28678E-01 4.32547E-02
 -1       227 8.07762E-14 1.27178E-01 1.55881E-14
 -1       228 3.69580E-14 1.27652E-01-4.50496E-17
 -1       229 8.08446E-14 1.27178E-01-1.59087E-14
 -1       230 3.47355E-14 1.28678E-01-4.32547E-02
 -1       231 4.96950E-14 1.94056E-01-4.33681E-17
 -1       232 5.97337E-14 2.73146E-01 6.06758E-02
 -1       233 2.35597E-13 2.71940E-01 3.17674E-14
 -1       234 1.47887E-13 2.72315E-01-3.82201E-17
 -1       235 2.35759E-13 2.71940E-01-3.21477E-14
 -1       236 5.58735E-14 2.73146E-01-6.06758E-02
 -1       237 8.38494E-15 3.61019E-01-1.79538E-16
 -1       238 3.22988E-13 4.60028E-01 7.49453E-02
 -1       239 3.36021E-13 4.58999E-01 3.71616E-14
 -1       240 3.35889E-13 4.59365E-01-4.93070E-16
 -1       241 3.36159E-13 4.58999E-01-3.82277E-14
 -1       242 3.47983E-13 4.60028E-01-7.49453E-02
 -3
    1PSTEP                         2           1           2          
  100CL  102 2.000000000         111                     0    2           1
 -4  DISP        4    1
 -5  D1          1    2    1    0
 -5  D2          1    2    2    0
 -5  D3          1    2    3    0
 -5  ALL         1    2    0    0    1ALL
 -1        34 8.71371E+01 2.74965E+03 8.88025E+02
 -1        35 1.99023E+02 4.11660E+03 3.31174E+02
 -1        36 2.94886E+02 4.68770E+03-5.45444E+02
 -1        37 2.91743E+02 4.37384E+03-1.46091E+03
 -1        38 2.29052E+02 3.16602E+03-2.15082E+03
 -1        39 1.07411E+02 1.34699E+03-2.38107E+03
 -1        40-4.08754E+01-6.88400E+02-2.11996E+03
 -1        55 4.08754E+01-6.88400E+02-2.11996E+03
 -1        56-1.07411E+02 1.34699E+03-2.38107E+03
 -1        57-2.29052E+02 3.16602E+03-2.15082E+03
 -1        58-2.91743E+02 4.37384E+03-1.46091E+03
 -1        59-2.94886E+02 4.68770E+03-5.45444E+02
 -1        60-1.99023E+02 4.11660E+03 3.31174E+02
 -1        61-8.71371E+01 2.74965E+03 8.88025E+02
 -1        64-6.39703E+01 2.67371E+03-1.58839E+03
 -1        65-1.65104E+02 4.08575E+03-1.39587E+03
 -1        66-2.60498E+02 4.77562E+03-7.33217E+02
 -1        67-2.55630E+02 4.72705E+03 1.68699E+02
 -1        68-1.89443E+02 3.79668E+03 1.11048E+03
 -1        69-6.17510E+01 2.19986E+03 1.82253E+03
 -1        70 9.05270E+01 2.45471E+02 2.18796E+03
 -1        79 6.39703E+01 2.67371E+03-1.58839E+03
 -1        80 1.65104E+02 4.08575E+03-1.39587E+03
 -1        81 2.60498E+02 4.77562E+03-7.33217E+02
 -1        82 2.55630E+02 4.72705E+03 1.68699E+02
 -1        83 1.89443E+02 3.79668E+03 1.11048E+03
 -1        84 6.17510E+01 2.19986E+03 1.82253E+03
 -1        85-9.05270E+01 2.45471E+02 2.18796E+03
 -1       104-4.41582E+01 2.75882E+03 9.42986E+02
 -1       105-3.19005E-09 2.75036E+03 9.51009E+02
 -1       106 4.41582E+01 2.75882E+03 9.42986E+02
 -1       107-4.70574E-09 4.05028E+03 3.62169E+02
 -1       108-1.47261E+02 4.60959E+03-5.24565E+02
 -1       109-5.91351E-09 4.59493E+03-5.18152E+02
 -1       110 1.47261E+02 4.60959E+03-5.24565E+02
 -1       111-6.64024E-09 4.27176E+03-1.45208E+03
 -1       112-1.14457E+02 3.10596E+03-2.16102E+03
 -1       113-6.81576E-09 3.09076E+03-2.15812E+03
 -1       114 1.14457E+02 3.10596E+03-2.16102E+03
 -1       115-6.32462E-09 1.30920E+03-2.40753E+03
 -1       116 2.03409E+01-6.79373E+02-2.15843E+03
 -1       117-5.21686E-09-6.73982E+02-2.15960E+03
 -1       118-2.03409E+01-6.79373E+02-2.15843E+03
 -1       133 5.45071E+01 2.74705E+03 5.24180E+01
 -1       134 1.73153E+01 2.80047E+03-3.16041E+02
 -1       135-2.50465E+01 2.73568E+03-6.98951E+02
 -1       136 1.03136E+01 4.14832E+03-4.98990E+02
 -1       137 1.36294E+02 4.84615E+03-6.48936E+02
 -1       138-1.79556E+00 4.90929E+03-6.50384E+02
 -1       139-1.25749E+02 4.92049E+03-6.51609E+02
 -1       140 1.71526E-01 4.69281E+03-6.83229E+02
 -1       141 1.13632E+02 3.43835E+03-1.27739E+03
 -1       142 7.70579E+00 3.60449E+03-5.72237E+02
 -1       143-8.98585E+01 3.72634E+03 1.58378E+02
 -1       144 1.76771E+01 1.80792E+03-3.20808E+02
 -1       145-6.04686E+00-4.58741E+02-9.05155E+02
 -1       146 2.68844E+01-2.70306E+02 1.30002E+01
 -1       147 5.88711E+01-5.82398E+01 9.45647E+02
 -1       162-3.05475E+01 2.67282E+03-1.67813E+03
 -1       163 3.66254E-09 2.66311E+03-1.69606E+03
 -1       164 3.05475E+01 2.67282E+03-1.67813E+03
 -1       165 5.27279E-09 4.01245E+03-1.43029E+03
 -1       166-1.33270E+02 4.70562E+03-7.39754E+02
 -1       167 6.44651E-09 4.69135E+03-7.46759E+02
 -1       168 1.33270E+02 4.70562E+03-7.39754E+02
 -1       169 6.94398E-09 4.63808E+03 1.95625E+02
 -1       170-9.57103E+01 3.75339E+03 1.15089E+03
 -1       171 6.86760E-09 3.73873E+03 1.15678E+03
 -1       172 9.57103E+01 3.75339E+03 1.15089E+03
 -1       173 6.21822E-09 2.18118E+03 1.87874E+03
 -1       174 4.55644E+01 2.70603E+02 2.23222E+03
 -1       175 5.06589E-09 2.76863E+02 2.23426E+03
 -1       176-4.55644E+01 2.70603E+02 2.23222E+03
 -1       191 2.50465E+01 2.73568E+03-6.98951E+02
 -1       192-1.73153E+01 2.80047E+03-3.16041E+02
 -1       193-5.45071E+01 2.74705E+03 5.24180E+01
 -1       194-1.03136E+01 4.14832E+03-4.98990E+02
 -1       195 1.25749E+02 4.92049E+03-6.51609E+02
 -1       196 1.79556E+00 4.90929E+03-6.50384E+02
 -1       197-1.36294E+02 4.84615E+03-6.48936E+02
 -1       198-1.71526E-01 4.69281E+03-6.83229E+02
 -1       199 8.98585E+01 3.72634E+03 1.58378E+02
 -1       200-7.70579E+00 3.60449E+03-5.72237E+02
 -1       201-1.13632E+02 3.43835E+03-1.27739E+03
 -1       202-1.76771E+01 1.80792E+03-3.20808E+02
 -1       203-5.88711E+01-5.82398E+01 9.45647E+02
 -1       204-2.68844E+01-2.70306E+02 1.30002E+01
 -1       205 6.04686E+00-4.58741E+02-9.05155E+02
 -1       220-1.51203E-09 2.74181E+03 9.63911E+01
 -1       221-8.65705E+00 2.80084E+03-3.28343E+02
 -1       222 1.92357E-10 2.79077E+03-3.31788E+02
 -1       223 8.65705E+00 2.80084E+03-3.28343E+02
 -1       224 1.92119E-09 2.72329E+03-7.81111E+02
 -1       225-5.10298E-11 4.06931E+03-4.50093E+02
 -1       226 1.34618E-10 4.77589E+03-4.72521E+02
 -1       227 1.33656E+01 4.82802E+03-5.11901E+02
 -1       228 7.79227E-11 4.83344E+03-5.09611E+02
 -1       229-1.33656E+01 4.82802E+03-5.11901E+02
 -1       230-1.58475E-10 4.80391E+03-5.01596E+02
 -1       231 9.63332E-12 4.60836E+03-4.62822E+02
 -1       232 3.81023E-10 3.32743E+03-1.08432E+03
 -1       233-1.19097E+01 3.55056E+03-3.95849E+02
 -1       234-3.19637E-11 3.54208E+03-4.03756E+02
 -1       235 1.19097E+01 3.55056E+03-3.95849E+02
 -1       236-3.58784E-10 3.69904E+03 3.74313E+02
 -1       237 2.85881E-11 1.79478E+03-2.07267E+02
 -1       238-2.66209E-09-4.43907E+02-9.38457E+02
 -1       239-1.37015E+01-2.54130E+02 1.63813E+01
 -1       240-1.27867E-10-2.49042E+02 1.69716E+01
 -1       241 1.37015E+01-2.54130E+02 1.63813E+01
 -1       242 2.44950E-09-2.92065E+01 9.85510E+02
 -3
 9999
