
 displacements (vx,vy,vz) for set NALL and time  0.1000000E+01

         1  0.000000E+00  0.000000E+00  0.000000E+00
         2  0.000000E+00  0.000000E+00  0.000000E+00
         3  0.000000E+00  0.000000E+00  0.000000E+00
         4  0.000000E+00  0.000000E+00  0.000000E+00
         5 -2.043782E-02  4.384410E+01  4.090274E+00
         6  2.043786E-02  4.384410E+01  4.090274E+00
         7 -2.043787E-02  4.384410E+01 -4.090274E+00
         8  2.043782E-02  4.384410E+01 -4.090274E+00
         9  0.000000E+00  0.000000E+00  0.000000E+00
        10  0.000000E+00  0.000000E+00  0.000000E+00
        11  0.000000E+00  0.000000E+00  0.000000E+00
        12  0.000000E+00  0.000000E+00  0.000000E+00
        13  0.000000E+00  0.000000E+00  0.000000E+00
        14  0.000000E+00  0.000000E+00  0.000000E+00
        15  0.000000E+00  0.000000E+00  0.000000E+00
        16  0.000000E+00  0.000000E+00  0.000000E+00
        17  0.000000E+00  0.000000E+00  0.000000E+00
        18  0.000000E+00  0.000000E+00  0.000000E+00
        19  0.000000E+00  0.000000E+00  0.000000E+00
        20  0.000000E+00  0.000000E+00  0.000000E+00
        21 -9.337883E-03  4.380102E+01  4.086377E+00
        22  1.729198E-08  4.379729E+01  4.077814E+00
        23  9.337864E-03  4.380102E+01  4.086377E+00
        24  5.360306E-05  4.381057E+01  2.031760E+00
        25  3.825775E-08  4.378810E+01  1.618115E-09
        26 -5.361980E-05  4.381057E+01 -2.031760E+00
        27 -9.337847E-03  4.380102E+01 -4.086377E+00
        28 -2.235037E-08  4.379729E+01 -4.077814E+00
        29  9.337881E-03  4.380102E+01 -4.086377E+00
        30  5.363646E-05  4.381057E+01 -2.031760E+00
        31  3.791588E-09  4.378810E+01  1.796511E-08
        32 -5.365261E-05  4.381057E+01  2.031760E+00
        33 -1.543530E-01  2.689877E-01  4.629473E-01
        34 -1.125197E-01  9.599070E-01  9.272725E-01
        35 -1.270906E-01  2.160034E+00  1.363219E+00
        36 -1.121735E-01  3.741568E+00  1.766239E+00
        37 -1.066306E-01  5.734484E+00  2.133539E+00
        38 -9.546328E-02  8.063793E+00  2.471551E+00
        39 -8.694681E-02  1.072400E+01  2.776599E+00
        40 -7.688233E-02  1.366818E+01  3.050375E+00
        41 -6.761492E-02  1.687180E+01  3.290891E+00
        42 -5.821757E-02  2.029995E+01  3.500058E+00
        43 -4.767309E-02  2.392026E+01  3.676725E+00
        44 -3.821101E-02  2.770623E+01  3.822303E+00
        45 -2.979744E-02  3.160810E+01  3.933213E+00
        46 -2.443049E-02  3.562033E+01  4.013665E+00
        47 -1.901462E-03  3.969105E+01  4.063236E+00
        48  1.901440E-03  3.969105E+01  4.063236E+00
        49  2.443045E-02  3.562033E+01  4.013665E+00
        50  2.979754E-02  3.160810E+01  3.933213E+00
        51  3.821100E-02  2.770623E+01  3.822303E+00
        52  4.767307E-02  2.392026E+01  3.676725E+00
        53  5.821758E-02  2.029995E+01  3.500058E+00
        54  6.761497E-02  1.687180E+01  3.290891E+00
        55  7.688231E-02  1.366818E+01  3.050375E+00
        56  8.694684E-02  1.072400E+01  2.776599E+00
        57  9.546326E-02  8.063793E+00  2.471550E+00
        58  1.066306E-01  5.734484E+00  2.133539E+00
        59  1.121736E-01  3.741568E+00  1.766239E+00
        60  1.270906E-01  2.160034E+00  1.363219E+00
        61  1.125197E-01  9.599070E-01  9.272726E-01
        62  1.543529E-01  2.689876E-01  4.629472E-01
        63  1.543530E-01  2.689877E-01 -4.629473E-01
        64  1.125197E-01  9.599070E-01 -9.272725E-01
        65  1.270907E-01  2.160034E+00 -1.363219E+00
        66  1.121736E-01  3.741569E+00 -1.766239E+00
        67  1.066306E-01  5.734484E+00 -2.133539E+00
        68  9.546324E-02  8.063793E+00 -2.471551E+00
        69  8.694680E-02  1.072400E+01 -2.776599E+00
        70  7.688233E-02  1.366818E+01 -3.050375E+00
        71  6.761492E-02  1.687180E+01 -3.290891E+00
        72  5.821762E-02  2.029995E+01 -3.500058E+00
        73  4.767314E-02  2.392026E+01 -3.676725E+00
        74  3.821102E-02  2.770623E+01 -3.822303E+00
        75  2.979754E-02  3.160810E+01 -3.933213E+00
        76  2.443049E-02  3.562033E+01 -4.013665E+00
        77  1.901492E-03  3.969105E+01 -4.063235E+00
        78 -1.543530E-01  2.689877E-01 -4.629472E-01
        79 -1.125197E-01  9.599069E-01 -9.272726E-01
        80 -1.270906E-01  2.160034E+00 -1.363219E+00
        81 -1.121736E-01  3.741568E+00 -1.766239E+00
        82 -1.066306E-01  5.734484E+00 -2.133539E+00
        83 -9.546324E-02  8.063793E+00 -2.471550E+00
        84 -8.694681E-02  1.072400E+01 -2.776599E+00
        85 -7.688232E-02  1.366818E+01 -3.050374E+00
        86 -6.761491E-02  1.687180E+01 -3.290891E+00
        87 -5.821766E-02  2.029995E+01 -3.500058E+00
        88 -4.767307E-02  2.392026E+01 -3.676725E+00
        89 -3.821101E-02  2.770623E+01 -3.822303E+00
        90 -2.979756E-02  3.160810E+01 -3.933213E+00
        91 -2.443047E-02  3.562033E+01 -4.013665E+00
        92 -1.901420E-03  3.969105E+01 -4.063236E+00
        93  0.000000E+00  0.000000E+00  0.000000E+00
        94  0.000000E+00  0.000000E+00  0.000000E+00
        95  0.000000E+00  0.000000E+00  0.000000E+00
        96  0.000000E+00  0.000000E+00  0.000000E+00
        97  0.000000E+00  0.000000E+00  0.000000E+00
        98  5.873236E-09  4.378694E+01  2.034144E+00
        99 -3.956485E-09  4.378562E+01 -1.412345E-08
       100  2.061061E-08  4.377803E+01  2.306807E-08
       101 -2.296491E-08  4.378562E+01 -1.083871E-08
       102 -1.761867E-09  4.378694E+01 -2.034144E+00
       103  3.165314E-08  3.351691E-01  4.496191E-01
       104  5.570422E-02  1.014299E+00  9.332437E-01
       105 -9.344140E-09  1.026557E+00  9.399923E-01
       106 -5.570421E-02  1.014299E+00  9.332437E-01
       107 -6.702466E-09  2.220430E+00  1.363575E+00
       108  5.609440E-02  3.785082E+00  1.769527E+00
       109  2.214523E-08  3.802093E+00  1.770048E+00
       110 -5.609442E-02  3.785082E+00  1.769527E+00
       111  3.911632E-09  5.786490E+00  2.135300E+00
       112  4.770176E-02  8.100888E+00  2.473874E+00
       113 -8.731014E-09  8.113218E+00  2.473943E+00
       114 -4.770174E-02  8.100888E+00  2.473874E+00
       115 -7.000982E-09  1.076708E+01  2.778661E+00
       116  3.845000E-02  1.369699E+01  3.052595E+00
       117 -1.164414E-08  1.370686E+01  3.052404E+00
       118 -3.844998E-02  1.369699E+01  3.052595E+00
       119 -1.339997E-08  1.690577E+01  3.292983E+00
       120  2.908550E-02  2.032169E+01  3.502323E+00
       121  1.290281E-09  2.032823E+01  3.502099E+00
       122 -2.908550E-02  2.032169E+01  3.502323E+00
       123  1.449008E-08  2.394472E+01  3.678795E+00
       124  1.919427E-02  2.771752E+01  3.824236E+00
       125 -1.351964E-08  2.772187E+01  3.823961E+00
       126 -1.919425E-02  2.771752E+01  3.824236E+00
       127 -4.194776E-08  3.162570E+01  3.935427E+00
       128  1.184023E-02  3.563010E+01  4.016417E+00
       129 -1.797554E-08  3.562500E+01  4.016460E+00
       130 -1.184020E-02  3.563010E+01  4.016417E+00
       131  2.083740E-08  3.969598E+01  4.064235E+00
       132  2.559809E-08  1.740572E-01 -1.103043E-08
       133 -5.677699E-02  9.216759E-01  4.595227E-01
       134  2.825864E-08  9.274761E-01 -6.255967E-09
       135  5.677703E-02  9.216759E-01 -4.595227E-01
       136  2.154687E-08  2.086109E+00  2.575205E-08
       137 -5.596014E-02  3.707500E+00  8.774293E-01
       138  2.299718E-08  3.699619E+00 -1.901888E-08
       139  5.596014E-02  3.707499E+00 -8.774293E-01
       140 -2.507983E-08  5.677117E+00 -1.185211E-09
       141 -4.776072E-02  8.030194E+00  1.230815E+00
       142 -1.359454E-08  8.021412E+00  1.326200E-08
       143  4.776071E-02  8.030194E+00 -1.230815E+00
       144 -4.284759E-09  1.067910E+01 -6.857360E-09
       145 -3.846860E-02  1.364011E+01  1.519937E+00
       146  2.399711E-09  1.363117E+01 -5.582612E-09
       147  3.846859E-02  1.364011E+01 -1.519937E+00
       148 -1.984440E-08  1.683806E+01  7.663095E-09
       149 -2.895730E-02  2.027793E+01  1.744999E+00
       150  3.451879E-08  2.027025E+01 -1.044147E-08
       151  2.895729E-02  2.027793E+01 -1.744999E+00
       152  2.925617E-09  2.389693E+01  1.712612E-08
       153 -1.974679E-02  2.768836E+01  1.905547E+00
       154  1.551718E-08  2.768077E+01 -8.390196E-09
       155  1.974682E-02  2.768836E+01 -1.905547E+00
       156  7.707545E-09  3.159866E+01  1.495347E-08
       157 -9.747852E-03  3.561068E+01  2.003394E+00
       158  1.571463E-08  3.560322E+01 -2.091745E-08
       159  9.747864E-03  3.561068E+01 -2.003394E+00
       160 -2.987232E-08  3.968930E+01 -1.065632E-09
       161  1.638298E-09  3.351692E-01 -4.496191E-01
       162  5.570417E-02  1.014299E+00 -9.332438E-01
       163  2.914690E-10  1.026557E+00 -9.399923E-01
       164 -5.570417E-02  1.014299E+00 -9.332437E-01
       165 -1.970540E-08  2.220430E+00 -1.363575E+00
       166  5.609439E-02  3.785082E+00 -1.769527E+00
       167 -1.402620E-08  3.802093E+00 -1.770048E+00
       168 -5.609437E-02  3.785082E+00 -1.769527E+00
       169 -5.635672E-09  5.786490E+00 -2.135300E+00
       170  4.770177E-02  8.100888E+00 -2.473874E+00
       171 -8.481330E-09  8.113218E+00 -2.473943E+00
       172 -4.770177E-02  8.100888E+00 -2.473874E+00
       173  1.142578E-08  1.076708E+01 -2.778661E+00
       174  3.845000E-02  1.369699E+01 -3.052595E+00
       175 -9.015105E-10  1.370686E+01 -3.052404E+00
       176 -3.844999E-02  1.369699E+01 -3.052595E+00
       177  1.052675E-08  1.690577E+01 -3.292983E+00
       178  2.908547E-02  2.032169E+01 -3.502323E+00
       179 -7.444895E-09  2.032823E+01 -3.502099E+00
       180 -2.908545E-02  2.032169E+01 -3.502323E+00
       181 -2.172533E-08  2.394472E+01 -3.678795E+00
       182  1.919424E-02  2.771752E+01 -3.824236E+00
       183  3.929376E-09  2.772187E+01 -3.823961E+00
       184 -1.919424E-02  2.771752E+01 -3.824236E+00
       185  1.302130E-08  3.162570E+01 -3.935427E+00
       186  1.184021E-02  3.563010E+01 -4.016417E+00
       187 -7.359475E-09  3.562500E+01 -4.016460E+00
       188 -1.184021E-02  3.563010E+01 -4.016417E+00
       189 -2.096836E-08  3.969598E+01 -4.064235E+00
       190 -6.255689E-08  1.740572E-01 -2.571209E-08
       191 -5.677702E-02  9.216760E-01 -4.595227E-01
       192 -2.875837E-08  9.274761E-01 -9.900840E-10
       193  5.677698E-02  9.216759E-01  4.595227E-01
       194 -3.392128E-09  2.086109E+00  2.341113E-08
       195 -5.596013E-02  3.707500E+00 -8.774293E-01
       196 -8.866408E-09  3.699619E+00 -1.012090E-08
       197  5.596014E-02  3.707500E+00  8.774293E-01
       198  1.525542E-08  5.677117E+00 -3.710806E-09
       199 -4.776072E-02  8.030194E+00 -1.230815E+00
       200  1.938778E-08  8.021412E+00  6.571338E-09
       201  4.776072E-02  8.030194E+00  1.230815E+00
       202 -1.336819E-08  1.067910E+01 -1.513180E-09
       203 -3.846861E-02  1.364011E+01 -1.519937E+00
       204  1.793203E-08  1.363117E+01  1.167192E-08
       205  3.846862E-02  1.364011E+01  1.519937E+00
       206  1.610597E-08  1.683806E+01 -1.151019E-08
       207 -2.895727E-02  2.027793E+01 -1.744999E+00
       208 -8.428846E-09  2.027025E+01  2.972637E-09
       209  2.895729E-02  2.027793E+01  1.744999E+00
       210 -1.922840E-08  2.389693E+01  2.125273E-08
       211 -1.974683E-02  2.768836E+01 -1.905547E+00
       212  1.428672E-09  2.768077E+01 -4.109057E-08
       213  1.974680E-02  2.768836E+01  1.905547E+00
       214 -2.045908E-08  3.159866E+01  3.030386E-08
       215 -9.747873E-03  3.561068E+01 -2.003394E+00
       216 -4.965226E-09  3.560322E+01 -2.711269E-08
       217  9.747867E-03  3.561068E+01  2.003394E+00
       218  1.339586E-09  3.968930E+01  5.758571E-09
       219  2.096835E-08  2.398657E-01 -1.594086E-08
       220  8.980163E-09  9.850783E-01  4.649448E-01
       221  2.225938E-08  9.798040E-01  1.173223E-08
       222 -1.045150E-09  9.889656E-01  1.043806E-08
       223 -2.167206E-08  9.798040E-01  1.328757E-09
       224 -1.458711E-09  9.850783E-01 -4.649448E-01
       225 -1.394555E-08  2.148709E+00 -8.740385E-10
       226 -8.840995E-09  3.765987E+00  8.806301E-01
       227  7.976540E-09  3.740820E+00  8.469408E-10
       228  1.149624E-08  3.755765E+00  1.161210E-08
       229 -1.936322E-08  3.740820E+00  9.922538E-09
       230 -4.817283E-09  3.765987E+00 -8.806301E-01
       231 -1.280195E-10  5.730634E+00 -3.890219E-08
       232  3.623311E-09  8.078571E+00  1.232983E+00
       233 -1.632577E-08  8.057525E+00 -1.301172E-08
       234  3.758052E-09  8.068848E+00  1.981987E-08
       235  1.109289E-08  8.057525E+00 -1.503839E-08
       236  3.185974E-10  8.078571E+00 -1.232983E+00
       237  2.120852E-09  1.072268E+01  4.116990E-09
       238 -1.024427E-08  1.367872E+01  1.522011E+00
       239 -1.655728E-08  1.365997E+01  8.981721E-09
       240  1.120769E-08  1.366964E+01 -1.208442E-08
       241  1.338005E-09  1.365997E+01  1.129006E-08
       242  3.731907E-09  1.367872E+01 -1.522011E+00
       243 -1.199111E-08  1.687172E+01  2.979458E-08
       244 -1.359068E-11  2.030677E+01  1.747013E+00
       245  2.661005E-09  2.029226E+01  2.193688E-09
       246  1.676221E-08  2.029983E+01 -1.730958E-08
       247 -2.214391E-08  2.029226E+01  1.184638E-08
       248 -6.546352E-09  2.030677E+01 -1.747013E+00
       249 -3.613816E-09  2.392039E+01  1.766449E-08
       250 -4.219214E-09  2.770679E+01  1.907702E+00
       251  2.064402E-09  2.769606E+01  2.343840E-08
       252  1.492276E-08  2.770138E+01 -2.192681E-08
       253 -1.697946E-08  2.769606E+01  1.278756E-08
       254 -3.943824E-09  2.770679E+01 -1.907702E+00
       255  5.620351E-10  3.161250E+01  1.943533E-08
       256 -2.525459E-09  3.561787E+01  2.004552E+00
       257  6.924384E-09  3.561102E+01  1.821564E-08
       258  9.360000E-09  3.561535E+01 -9.586590E-09
       259 -1.757134E-08  3.561102E+01  1.334589E-08
       260 -2.140429E-09  3.561787E+01 -2.004552E+00
       261  2.589420E-10  3.968974E+01 -1.751890E-08

 stresses (elem, integ.pnt.,sxx,syy,szz,sxy,sxz,syz) for set EALL and time  0.1000000E+01

         1   1  3.053136E+04  3.073347E+04  1.698997E+05 -3.835157E+03  1.565701E+04  5.348222E+03
         1   2  2.893060E+04  2.900483E+04  1.656937E+05  1.119122E+03  3.219606E+03  1.290402E+04
         1   3  7.210764E+02 -8.773827E+03  3.774199E+04 -3.840445E+03  4.195733E+03 -3.945831E+03
         1   4  3.569334E+02 -9.043154E+03  3.663710E+04  1.113933E+03  8.513778E+02  3.693634E+03
         1   5 -8.538368E+03 -7.263318E+03  1.504896E+05 -1.355283E+03 -6.293703E+03 -7.525195E+00
         1   6 -5.003251E+03 -4.955419E+03  1.577307E+05  4.714060E+02 -1.936127E+03 -4.304799E+02
         1   7 -4.151350E+03 -5.740209E+03  3.818442E+04 -1.749985E+03 -1.728615E+03  9.409309E+03
         1   8 -3.286644E+03 -5.271578E+03  3.999948E+04  7.707636E+01 -5.727826E+02  9.028758E+03
         2   1  2.893056E+04  2.900481E+04  1.656937E+05 -1.119121E+03 -3.219585E+03  1.290402E+04
         2   2  3.053131E+04  3.073343E+04  1.698997E+05  3.835160E+03 -1.565701E+04  5.348222E+03
         2   3  3.569003E+02 -9.043172E+03  3.663709E+04 -1.113943E+03 -8.513659E+02  3.693628E+03
         2   4  7.210419E+02 -8.773850E+03  3.774199E+04  3.840444E+03 -4.195732E+03 -3.945848E+03
         2   5 -5.003291E+03 -4.955457E+03  1.577306E+05 -4.714037E+02  1.936141E+03 -4.304832E+02
         2   6 -8.538485E+03 -7.263433E+03  1.504895E+05  1.355288E+03  6.293699E+03 -7.519090E+00
         2   7 -3.286681E+03 -5.271598E+03  3.999946E+04 -7.709605E+01  5.727868E+02  9.028747E+03
         2   8 -4.151401E+03 -5.740227E+03  3.818439E+04  1.749989E+03  1.728623E+03  9.409291E+03
         3   1 -7.209771E+02  8.773928E+03 -3.774195E+04 -3.840439E+03 -4.195742E+03 -3.945818E+03
         3   2 -3.568786E+02  9.043227E+03 -3.663708E+04  1.113931E+03 -8.513719E+02  3.693644E+03
         3   3 -3.053128E+04 -3.073341E+04 -1.698996E+05 -3.835148E+03 -1.565701E+04  5.348252E+03
         3   4 -2.893057E+04 -2.900479E+04 -1.656937E+05  1.119107E+03 -3.219599E+03  1.290405E+04
         3   5  4.151571E+03  5.740421E+03 -3.818427E+04 -1.749970E+03  1.728630E+03  9.409310E+03
         3   6  3.286707E+03  5.271713E+03 -3.999940E+04  7.706864E+01  5.727806E+02  9.028752E+03
         3   7  8.538512E+03  7.263394E+03 -1.504895E+05 -1.355248E+03  6.293710E+03 -7.543416E+00
         3   8  5.003242E+03  4.955418E+03 -1.577306E+05  4.713616E+02  1.936129E+03 -4.304867E+02
         4   1 -3.569071E+02  9.043212E+03 -3.663709E+04 -1.113942E+03  8.513723E+02  3.693636E+03
         4   2 -7.210103E+02  8.773906E+03 -3.774198E+04  3.840437E+03  4.195739E+03 -3.945838E+03
         4   3 -2.893058E+04 -2.900480E+04 -1.656937E+05 -1.119116E+03  3.219588E+03  1.290404E+04
         4   4 -3.053130E+04 -3.073341E+04 -1.698997E+05  3.835147E+03  1.565701E+04  5.348242E+03
         4   5  3.286677E+03  5.271690E+03 -3.999942E+04 -7.708715E+01 -5.727958E+02  9.028742E+03
         4   6  4.151525E+03  5.740367E+03 -3.818430E+04  1.749975E+03 -1.728623E+03  9.409294E+03
         4   7  5.003232E+03  4.955425E+03 -1.577307E+05 -4.713768E+02 -1.936154E+03 -4.304893E+02
         4   8  8.538537E+03  7.263455E+03 -1.504895E+05  1.355254E+03 -6.293691E+03 -7.530891E+00
         5   1  2.596361E+03  1.293544E+01  1.451209E+05  2.002875E+03  2.344358E+03  5.295610E+03
         5   2  1.892272E+03 -1.482643E+03  1.420430E+05 -1.221468E+03  1.133185E+03  4.238940E+03
         5   3  4.460919E+03  9.076296E+03  4.262326E+04  1.828325E+03  5.714440E+02  4.433445E+03
         5   4  4.515405E+03  9.141329E+03  4.214338E+04 -1.396001E+03  2.615557E+02  4.031963E+03
         5   5 -1.797620E+03 -2.609731E+03  1.317002E+05 -3.334597E+02 -1.292390E+03  1.052302E+03
         5   6 -9.400729E+02 -1.872839E+03  1.332536E+05 -7.149615E+01 -6.011156E+02  1.123184E+03
         5   7 -1.341000E+03 -2.612370E+03  3.434404E+04 -3.265914E+02 -3.013376E+02  8.260605E+03
         5   8 -1.015670E+03 -2.293611E+03  3.495753E+04 -6.585633E+01 -1.014589E+02  7.563996E+03
         6   1  1.892284E+03 -1.482649E+03  1.420430E+05  1.221459E+03 -1.133168E+03  4.238936E+03
         6   2  2.596364E+03  1.291571E+01  1.451209E+05 -2.002879E+03 -2.344371E+03  5.295614E+03
         6   3  4.515418E+03  9.141343E+03  4.214340E+04  1.395985E+03 -2.615531E+02  4.031950E+03
         6   4  4.460962E+03  9.076361E+03  4.262330E+04 -1.828317E+03 -5.714431E+02  4.433415E+03
         6   5 -9.401158E+02 -1.872869E+03  1.332536E+05  7.147022E+01  6.011418E+02  1.123185E+03
         6   6 -1.797590E+03 -2.609752E+03  1.317002E+05  3.334500E+02  1.292379E+03  1.052320E+03
         6   7 -1.015683E+03 -2.293608E+03  3.495752E+04  6.585554E+01  1.014744E+02  7.563986E+03
         6   8 -1.340932E+03 -2.612303E+03  3.434407E+04  3.266064E+02  3.013351E+02  8.260584E+03
         7   1 -4.460798E+03 -9.076176E+03 -4.262317E+04  1.828340E+03 -5.714468E+02  4.433439E+03
         7   2 -4.515464E+03 -9.141300E+03 -4.214340E+04 -1.396007E+03 -2.615753E+02  4.031945E+03
         7   3 -2.596282E+03 -1.290421E+01 -1.451209E+05  2.002902E+03 -2.344363E+03  5.295596E+03
         7   4 -1.892384E+03  1.482575E+03 -1.420430E+05 -1.221504E+03 -1.133200E+03  4.238936E+03
         7   5  1.341000E+03  2.612340E+03 -3.434406E+04 -3.265823E+02  3.013258E+02  8.260606E+03
         7   6  1.015593E+03  2.293552E+03 -3.495756E+04 -6.585493E+01  1.014463E+02  7.563978E+03
         7   7  1.797710E+03  2.609844E+03 -1.317002E+05 -3.334797E+02  1.292381E+03  1.052265E+03
         7   8  9.400325E+02  1.872891E+03 -1.332536E+05 -7.148643E+01  6.010981E+02  1.123169E+03
         8   1 -4.515447E+03 -9.141303E+03 -4.214339E+04  1.395994E+03  2.615581E+02  4.031932E+03
         8   2 -4.460793E+03 -9.076219E+03 -4.262318E+04 -1.828326E+03  5.714501E+02  4.433412E+03
         8   3 -1.892340E+03  1.482606E+03 -1.420430E+05  1.221493E+03  1.133170E+03  4.238932E+03
         8   4 -2.596241E+03 -1.284790E+01 -1.451209E+05 -2.002891E+03  2.344386E+03  5.295602E+03
         8   5  1.015606E+03  2.293550E+03 -3.495755E+04  6.584522E+01 -1.014479E+02  7.563970E+03
         8   6  1.341029E+03  2.612318E+03 -3.434405E+04  3.265994E+02 -3.013306E+02  8.260590E+03
         8   7  9.401132E+02  1.872940E+03 -1.332535E+05  7.147699E+01 -6.011155E+02  1.123167E+03
         8   8  1.797759E+03  2.609912E+03 -1.317001E+05  3.334849E+02 -1.292379E+03  1.052273E+03
         9   1  1.396580E+03  2.964552E+03  1.236309E+05 -1.752550E+02  3.485059E+02  3.682499E+03
         9   2  1.064415E+03  2.540127E+03  1.229465E+05  4.170340E+02 -6.286082E+01  2.989594E+03
         9   3  3.167835E+02  5.589535E+02  3.310674E+04 -2.097267E+02  1.950032E+02  6.096711E+03
         9   4  9.598145E+01  1.524872E+02  3.277676E+04  3.827327E+02  8.123480E+01  5.231208E+03
         9   5 -4.652360E+02 -1.016229E+03  1.108923E+05 -9.922850E+01 -4.719855E+02  2.189634E+03
         9   6 -2.570579E+02 -7.197097E+02  1.111777E+05 -6.394488E+01 -3.185334E+02  1.958311E+03
         9   7 -4.532363E+02 -1.093081E+03  2.943648E+04 -4.113156E+01 -3.963508E+01  7.379455E+03
         9   8 -3.392141E+02 -8.630341E+02  2.955641E+04 -6.105068E-01 -2.049612E+00  6.472492E+03
        10   1  1.064353E+03  2.540088E+03  1.229465E+05 -4.170547E+02  6.286865E+01  2.989598E+03
        10   2  1.396603E+03  2.964536E+03  1.236309E+05  1.752481E+02 -3.485147E+02  3.682512E+03
        10   3  9.594159E+01  1.524729E+02  3.277674E+04 -3.827278E+02 -8.122794E+01  5.231206E+03
        10   4  3.168253E+02  5.589923E+02  3.310675E+04  2.097409E+02 -1.950067E+02  6.096704E+03
        10   5 -2.570635E+02 -7.197201E+02  1.111777E+05  6.394314E+01  3.185215E+02  1.958314E+03
        10   6 -4.652576E+02 -1.016245E+03  1.108923E+05  9.922469E+01  4.720092E+02  2.189624E+03
        10   7 -3.392359E+02 -8.630480E+02  2.955639E+04  6.078236E-01  2.047337E+00  6.472502E+03
        10   8 -4.532349E+02 -1.093084E+03  2.943646E+04  4.113054E+01  3.964306E+01  7.379472E+03
        11   1 -3.168378E+02 -5.590604E+02 -3.310680E+04 -2.097215E+02 -1.950190E+02  6.096739E+03
        11   2 -9.607204E+01 -1.526163E+02 -3.277687E+04  3.827379E+02 -8.125244E+01  5.231216E+03
        11   3 -1.396507E+03 -2.964465E+03 -1.236309E+05 -1.752808E+02 -3.485109E+02  3.682489E+03
        11   4 -1.064451E+03 -2.540103E+03 -1.229465E+05  4.170589E+02  6.283640E+01  2.989604E+03
        11   5  4.531514E+02  1.093000E+03 -2.943654E+04 -4.113339E+01  3.960422E+01  7.379478E+03
        11   6  3.392309E+02  8.630107E+02 -2.955639E+04 -6.051276E-01  2.044038E+00  6.472500E+03
        11   7  4.651932E+02  1.016198E+03 -1.108923E+05 -9.922970E+01  4.719663E+02  2.189658E+03
        11   8  2.570451E+02  7.197019E+02 -1.111777E+05 -6.393176E+01  3.185133E+02  1.958350E+03
        12   1 -9.608379E+01 -1.526298E+02 -3.277687E+04 -3.827417E+02  8.125092E+01  5.231214E+03
        12   2 -3.168255E+02 -5.590848E+02 -3.310679E+04  2.097398E+02  1.950138E+02  6.096734E+03
        12   3 -1.064390E+03 -2.540068E+03 -1.229465E+05 -4.170650E+02 -6.283747E+01  2.989603E+03
        12   4 -1.396503E+03 -2.964438E+03 -1.236308E+05  1.752882E+02  3.485200E+02  3.682492E+03
        12   5  3.392183E+02  8.629983E+02 -2.955639E+04  6.049321E-01 -2.036130E+00  6.472507E+03
        12   6  4.531576E+02  1.092989E+03 -2.943653E+04  4.114179E+01 -3.960416E+01  7.379490E+03
        12   7  2.570815E+02  7.197191E+02 -1.111777E+05  6.392686E+01 -3.185034E+02  1.958352E+03
        12   8  4.651957E+02  1.016208E+03 -1.108923E+05  9.924196E+01 -4.719867E+02  2.189650E+03
        13   1  1.761174E+02  3.563011E+02  1.019524E+05  1.653198E+02 -1.166662E+02  3.172881E+03
        13   2  9.770022E+01  1.349513E+02  1.018018E+05 -3.976862E+01 -1.720278E+02  2.630314E+03
        13   3  4.574516E+02  1.089293E+03  2.771148E+04  1.035212E+02  4.672964E+01  6.509269E+03
        13   4  3.978193E+02  9.357811E+02  2.763644E+04 -1.016189E+02  3.194475E+01  5.687507E+03
        13   5 -1.693904E+02 -4.230733E+02  8.967729E+04 -5.550604E+01 -3.041898E+02  2.561536E+03
        13   6 -9.561660E+01 -2.525007E+02  8.975599E+04 -1.408891E+01 -2.548190E+02  2.186225E+03
        13   7 -2.124674E+02 -4.671600E+02  2.384489E+04 -1.134203E+01  4.768699E-01  7.063556E+03
        13   8 -1.467257E+02 -3.182729E+02  2.391589E+04  1.050647E+01  1.373958E+01  6.188598E+03
        14   1  9.773734E+01  1.349637E+02  1.018018E+05  3.977181E+01  1.719903E+02  2.630319E+03
        14   2  1.760755E+02  3.562719E+02  1.019524E+05 -1.653273E+02  1.166866E+02  3.172872E+03
        14   3  3.978067E+02  9.357715E+02  2.763643E+04  1.016163E+02 -3.196440E+01  5.687525E+03
        14   4  4.574452E+02  1.089276E+03  2.771146E+04 -1.035354E+02 -4.673329E+01  6.509308E+03
        14   5 -9.554870E+01 -2.524573E+02  8.975604E+04  1.408714E+01  2.547783E+02  2.186229E+03
        14   6 -1.693559E+02 -4.230222E+02  8.967737E+04  5.549904E+01  3.041973E+02  2.561522E+03
        14   7 -1.467356E+02 -3.182745E+02  2.391590E+04 -1.049971E+01 -1.375528E+01  6.188616E+03
        14   8 -2.124361E+02 -4.671551E+02  2.384491E+04  1.132157E+01 -4.811671E-01  7.063591E+03
        15   1 -4.575187E+02 -1.089347E+03 -2.771153E+04  1.035262E+02 -4.674565E+01  6.509261E+03
        15   2 -3.977536E+02 -9.357593E+02 -2.763641E+04 -1.016094E+02 -3.193477E+01  5.687495E+03
        15   3 -1.761529E+02 -3.563279E+02 -1.019525E+05  1.653360E+02  1.166670E+02  3.172879E+03
        15   4 -9.769063E+01 -1.349490E+02 -1.018018E+05 -3.975080E+01  1.720355E+02  2.630323E+03
        15   5  2.124043E+02  4.671061E+02 -2.384491E+04 -1.133263E+01 -4.673383E-01  7.063540E+03
        15   6  1.467900E+02  3.182933E+02 -2.391586E+04  1.051651E+01 -1.373087E+01  6.188594E+03
        15   7  1.693931E+02  4.230836E+02 -8.967727E+04 -5.549705E+01  3.041821E+02  2.561551E+03
        15   8  9.562016E+01  2.525043E+02 -8.975598E+04 -1.406570E+01  2.548328E+02  2.186222E+03
        16   1 -3.977814E+02 -9.357746E+02 -2.763642E+04  1.016146E+02  3.194714E+01  5.687512E+03
        16   2 -4.575094E+02 -1.089339E+03 -2.771150E+04 -1.035266E+02  4.674376E+01  6.509297E+03
        16   3 -9.769064E+01 -1.349496E+02 -1.018017E+05  3.975175E+01 -1.719987E+02  2.630328E+03
        16   4 -1.761480E+02 -3.563127E+02 -1.019524E+05 -1.653234E+02 -1.166804E+02  3.172873E+03
        16   5  1.467390E+02  3.182677E+02 -2.391588E+04 -1.050617E+01  1.375231E+01  6.188615E+03
        16   6  2.124190E+02  4.671231E+02 -2.384491E+04  1.132321E+01  4.706378E-01  7.063585E+03
        16   7  9.558333E+01  2.524702E+02 -8.975601E+04  1.407384E+01 -2.547934E+02  2.186225E+03
        16   8  1.693320E+02  4.230118E+02 -8.967736E+04  5.550935E+01 -3.042000E+02  2.561531E+03
        17   1  1.602021E+02  4.170363E+02  8.068410E+04  1.557596E+01 -2.058002E+02  2.820899E+03
        17   2  9.941697E+01  2.769277E+02  8.063204E+04  5.441537E+01 -2.336565E+02  2.412711E+03
        17   3  1.314525E+02  2.966785E+02  2.172241E+04 -2.339533E+01  2.169240E+01  6.818545E+03
        17   4  6.222477E+01  1.385011E+02  2.165251E+04  1.547236E+01  1.829417E+01  5.947759E+03
        17   5 -1.505989E+02 -2.676404E+02  6.838528E+04 -1.267246E+01 -2.175623E+02  2.811615E+03
        17   6 -8.667626E+01 -1.705673E+02  6.841710E+04 -1.069289E+02 -2.473830E+02  2.327345E+03
        17   7 -1.431518E+02 -3.875580E+02  1.821932E+04  3.195375E+01  1.554703E+01  6.842556E+03
        17   8 -6.199207E+01 -2.091654E+02  1.828887E+04  1.078241E+01  1.162826E+01  6.018395E+03
        18   1  9.948327E+01  2.769722E+02  8.063208E+04 -5.442291E+01  2.336344E+02  2.412714E+03
        18   2  1.602368E+02  4.170876E+02  8.068413E+04 -1.559016E+01  2.058187E+02  2.820886E+03
        18   3  6.222210E+01  1.385064E+02  2.165252E+04 -1.546298E+01 -1.830717E+01  5.947771E+03
        18   4  1.315204E+02  2.967156E+02  2.172246E+04  2.337915E+01 -2.170059E+01  6.818569E+03
        18   5 -8.665160E+01 -1.705494E+02  6.841713E+04  1.069219E+02  2.473840E+02  2.327350E+03
        18   6 -1.505374E+02 -2.675800E+02  6.838534E+04  1.264565E+01  2.175516E+02  2.811628E+03
        18   7 -6.202911E+01 -2.091848E+02  1.828886E+04 -1.077485E+01 -1.161563E+01  6.018395E+03
        18   8 -1.430908E+02 -3.875304E+02  1.821935E+04 -3.195549E+01 -1.554924E+01  6.842553E+03
        19   1 -1.315692E+02 -2.967816E+02 -2.172249E+04 -2.338170E+01 -2.166904E+01  6.818510E+03
        19   2 -6.222748E+01 -1.385250E+02 -2.165250E+04  1.548458E+01 -1.827983E+01  5.947745E+03
        19   3 -1.602448E+02 -4.170656E+02 -8.068417E+04  1.557689E+01  2.058146E+02  2.820893E+03
        19   4 -9.948929E+01 -2.769747E+02 -8.063209E+04  5.443977E+01  2.336944E+02  2.412688E+03
        19   5  1.431020E+02  3.874873E+02 -1.821935E+04  3.197712E+01 -1.553432E+01  6.842525E+03
        19   6  6.192389E+01  2.090938E+02 -1.828893E+04  1.079544E+01 -1.160475E+01  6.018381E+03
        19   7  1.506720E+02  2.677078E+02 -6.838520E+04 -1.268074E+01  2.175462E+02  2.811632E+03
        19   8  8.657875E+01  1.705272E+02 -6.841714E+04 -1.069081E+02  2.474208E+02  2.327343E+03
        20   1 -6.226390E+01 -1.385411E+02 -2.165252E+04 -1.546746E+01  1.829523E+01  5.947760E+03
        20   2 -1.315173E+02 -2.967388E+02 -2.172246E+04  2.338004E+01  2.166771E+01  6.818549E+03
        20   3 -9.950315E+01 -2.769975E+02 -8.063210E+04 -5.442163E+01 -2.336573E+02  2.412688E+03
        20   4 -1.602579E+02 -4.171026E+02 -8.068416E+04 -1.556274E+01 -2.058278E+02  2.820872E+03
        20   5  6.189689E+01  2.090868E+02 -1.828896E+04 -1.078293E+01  1.162169E+01  6.018382E+03
        20   6  1.431461E+02  3.875172E+02 -1.821936E+04 -3.196528E+01  1.554009E+01  6.842533E+03
        20   7  8.658923E+01  1.705171E+02 -6.841716E+04  1.069294E+02 -2.474079E+02  2.327341E+03
        20   8  1.506053E+02  2.676283E+02 -6.838529E+04  1.268460E+01 -2.175418E+02  2.811626E+03
        21   1  1.543109E+02  3.549206E+02  5.938750E+04  6.604301E+01 -2.890483E+02  2.654433E+03