
 displacements (vx,vy,vz) for set NALL and time  0.1000000E+01

         1  1.200000E-02  0.000000E+00  0.000000E+00
         2  0.000000E+00  0.000000E+00  0.000000E+00
         3  1.001803E-15 -1.200000E-02  0.000000E+00
         4  1.200000E-02 -1.200000E-02  0.000000E+00
         5  1.200000E-02  5.565248E-14 -9.600000E-02
         6 -7.063348E-14  5.299136E-14 -9.600000E-02
         7 -6.789279E-14 -1.200000E-02 -9.600000E-02
         8  1.200000E-02 -1.200000E-02 -9.600000E-02
         9  9.000000E-03  7.666394E-16  0.000000E+00
        10  6.000000E-03  9.725293E-16  0.000000E+00
        11  3.000000E-03  6.331741E-16  0.000000E+00
        12  1.297926E-16 -3.000000E-03  0.000000E+00
        13  3.047493E-16 -6.000000E-03  0.000000E+00
        14  6.021367E-16 -9.000000E-03  0.000000E+00
        15  3.000000E-03 -1.200000E-02  0.000000E+00
        16  6.000000E-03 -1.200000E-02  0.000000E+00
        17  9.000000E-03 -1.200000E-02  0.000000E+00
        18  1.200000E-02 -9.000000E-03  0.000000E+00
        19  1.200000E-02 -6.000000E-03  0.000000E+00
        20  1.200000E-02 -3.000000E-03  0.000000E+00
        21  9.000000E-03  5.499822E-14 -9.600000E-02
        22  6.000000E-03  5.432863E-14 -9.600000E-02
        23  3.000000E-03  5.370148E-14 -9.600000E-02
        24 -6.998243E-14 -3.000000E-03 -9.600000E-02
        25 -6.943509E-14 -6.000000E-03 -9.600000E-02
        26 -6.863324E-14 -9.000000E-03 -9.600000E-02
        27  3.000000E-03 -1.200000E-02 -9.600000E-02
        28  6.000000E-03 -1.200000E-02 -9.600000E-02
        29  9.000000E-03 -1.200000E-02 -9.600000E-02
        30  1.200000E-02 -9.000000E-03 -9.600000E-02
        31  1.200000E-02 -6.000000E-03 -9.600000E-02
        32  1.200000E-02 -3.000000E-03 -9.600000E-02
        33 -5.846230E-16  1.061606E-15 -6.000000E-03
        34 -1.494735E-15  1.998835E-15 -1.200000E-02
        35 -3.279947E-15  3.914349E-15 -1.800000E-02
        36 -5.494520E-15  6.074938E-15 -2.400000E-02
        37 -8.425387E-15  8.983093E-15 -3.000000E-02
        38 -1.186204E-14  1.219000E-14 -3.600000E-02
        39 -1.594547E-14  1.595856E-14 -4.200000E-02
        40 -2.049381E-14  1.987298E-14 -4.800000E-02
        41 -2.548025E-14  2.412621E-14 -5.400000E-02
        42 -3.082397E-14  2.844958E-14 -6.000000E-02
        43 -3.665547E-14  3.276166E-14 -6.600000E-02
        44 -4.297021E-14  3.697953E-14 -7.200000E-02
        45 -4.963173E-14  4.116896E-14 -7.800000E-02
        46 -5.657002E-14  4.509425E-14 -8.400000E-02
        47 -6.351489E-14  4.910161E-14 -9.000000E-02
        48  1.200000E-02  5.164792E-14 -9.000000E-02
        49  1.200000E-02  4.740132E-14 -8.400000E-02
        50  1.200000E-02  4.332798E-14 -7.800000E-02
        51  1.200000E-02  3.890638E-14 -7.200000E-02
        52  1.200000E-02  3.450382E-14 -6.600000E-02
        53  1.200000E-02  2.989147E-14 -6.000000E-02
        54  1.200000E-02  2.556604E-14 -5.400000E-02
        55  1.200000E-02  2.115582E-14 -4.800000E-02
        56  1.200000E-02  1.702609E-14 -4.200000E-02
        57  1.200000E-02  1.306590E-14 -3.600000E-02
        58  1.200000E-02  9.684744E-15 -3.000000E-02
        59  1.200000E-02  6.619705E-15 -2.400000E-02
        60  1.200000E-02  4.381853E-15 -1.800000E-02
        61  1.200000E-02  2.399777E-15 -1.200000E-02
        62  1.200000E-02  1.281527E-15 -6.000000E-03
        63  6.036296E-16 -1.200000E-02 -6.000000E-03
        64 -4.128399E-16 -1.200000E-02 -1.200000E-02
        65 -2.087414E-15 -1.200000E-02 -1.800000E-02
        66 -4.259613E-15 -1.200000E-02 -2.400000E-02
        67 -7.073985E-15 -1.200000E-02 -3.000000E-02
        68 -1.046559E-14 -1.200000E-02 -3.600000E-02
        69 -1.437397E-14 -1.200000E-02 -4.200000E-02
        70 -1.879920E-14 -1.200000E-02 -4.800000E-02
        71 -2.373871E-14 -1.200000E-02 -5.400000E-02
        72 -2.895427E-14 -1.200000E-02 -6.000000E-02
        73 -3.470314E-14 -1.200000E-02 -6.600000E-02
        74 -4.075559E-14 -1.200000E-02 -7.200000E-02
        75 -4.735047E-14 -1.200000E-02 -7.800000E-02
        76 -5.410494E-14 -1.200000E-02 -8.400000E-02
        77 -6.104076E-14 -1.200000E-02 -9.000000E-02
        78  1.200000E-02 -1.200000E-02 -6.000000E-03
        79  1.200000E-02 -1.200000E-02 -1.200000E-02
        80  1.200000E-02 -1.200000E-02 -1.800000E-02
        81  1.200000E-02 -1.200000E-02 -2.400000E-02
        82  1.200000E-02 -1.200000E-02 -3.000000E-02
        83  1.200000E-02 -1.200000E-02 -3.600000E-02
        84  1.200000E-02 -1.200000E-02 -4.200000E-02
        85  1.200000E-02 -1.200000E-02 -4.800000E-02
        86  1.200000E-02 -1.200000E-02 -5.400000E-02
        87  1.200000E-02 -1.200000E-02 -6.000000E-02
        88  1.200000E-02 -1.200000E-02 -6.600000E-02
        89  1.200000E-02 -1.200000E-02 -7.200000E-02
        90  1.200000E-02 -1.200000E-02 -7.800000E-02
        91  1.200000E-02 -1.200000E-02 -8.400000E-02
        92  1.200000E-02 -1.200000E-02 -9.000000E-02
        93  6.000000E-03 -3.000000E-03  0.000000E+00
        94  9.000000E-03 -6.000000E-03  0.000000E+00
        95  6.000000E-03 -6.000000E-03  0.000000E+00
        96  3.000000E-03 -6.000000E-03  0.000000E+00
        97  6.000000E-03 -9.000000E-03  0.000000E+00
        98  6.000000E-03 -3.000000E-03 -9.600000E-02
        99  9.000000E-03 -6.000000E-03 -9.600000E-02
       100  6.000000E-03 -6.000000E-03 -9.600000E-02
       101  3.000000E-03 -6.000000E-03 -9.600000E-02
       102  6.000000E-03 -9.000000E-03 -9.600000E-02
       103  6.000000E-03  1.189370E-15 -6.000000E-03
       104  9.000000E-03  2.436837E-15 -1.200000E-02
       105  6.000000E-03  2.521398E-15 -1.200000E-02
       106  3.000000E-03  2.264600E-15 -1.200000E-02
       107  6.000000E-03  4.157048E-15 -1.800000E-02
       108  9.000000E-03  6.641534E-15 -2.400000E-02
       109  6.000000E-03  6.572295E-15 -2.400000E-02
       110  3.000000E-03  6.341203E-15 -2.400000E-02
       111  6.000000E-03  9.363339E-15 -3.000000E-02
       112  9.000000E-03  1.292830E-14 -3.600000E-02
       113  6.000000E-03  1.276952E-14 -3.600000E-02
       114  3.000000E-03  1.249424E-14 -3.600000E-02
       115  6.000000E-03  1.650000E-14 -4.200000E-02
       116  9.000000E-03  2.088359E-14 -4.800000E-02
       117  6.000000E-03  2.063461E-14 -4.800000E-02
       118  3.000000E-03  2.027231E-14 -4.800000E-02
       119  6.000000E-03  2.484612E-14 -5.400000E-02
       120  9.000000E-03  2.959720E-14 -6.000000E-02
       121  6.000000E-03  2.924760E-14 -6.000000E-02
       122  3.000000E-03  2.882624E-14 -6.000000E-02
       123  6.000000E-03  3.360745E-14 -6.600000E-02
       124  9.000000E-03  3.846518E-14 -7.200000E-02
       125  6.000000E-03  3.800300E-14 -7.200000E-02
       126  3.000000E-03  3.749136E-14 -7.200000E-02
       127  6.000000E-03  4.222666E-14 -7.800000E-02
       128  9.000000E-03  4.686876E-14 -8.400000E-02
       129  6.000000E-03  4.635344E-14 -8.400000E-02
       130  3.000000E-03  4.571636E-14 -8.400000E-02
       131  6.000000E-03  5.034840E-14 -9.000000E-02
       132 -3.073822E-17 -6.000000E-03 -6.000000E-03
       133 -1.324213E-15 -3.000000E-03 -1.200000E-02
       134 -1.131765E-15 -6.000000E-03 -1.200000E-02
       135 -7.838240E-16 -9.000000E-03 -1.200000E-02
       136 -2.746609E-15 -6.000000E-03 -1.800000E-02
       137 -5.300739E-15 -3.000000E-03 -2.400000E-02
       138 -5.034710E-15 -6.000000E-03 -2.400000E-02
       139 -4.688516E-15 -9.000000E-03 -2.400000E-02
       140 -7.825947E-15 -6.000000E-03 -3.000000E-02
       141 -1.157830E-14 -3.000000E-03 -3.600000E-02
       142 -1.126082E-14 -6.000000E-03 -3.600000E-02
       143 -1.086978E-14 -9.000000E-03 -3.600000E-02
       144 -1.522040E-14 -6.000000E-03 -4.200000E-02
       145 -2.012215E-14 -3.000000E-03 -4.800000E-02
       146 -1.972847E-14 -6.000000E-03 -4.800000E-02
       147 -1.928882E-14 -9.000000E-03 -4.800000E-02
       148 -2.463711E-14 -6.000000E-03 -5.400000E-02
       149 -3.044114E-14 -3.000000E-03 -6.000000E-02
       150 -2.998001E-14 -6.000000E-03 -6.000000E-02
       151 -2.948820E-14 -9.000000E-03 -6.000000E-02
       152 -3.573275E-14 -6.000000E-03 -6.600000E-02
       153 -4.249370E-14 -3.000000E-03 -7.200000E-02
       154 -4.198948E-14 -6.000000E-03 -7.200000E-02
       155 -4.139047E-14 -9.000000E-03 -7.200000E-02
       156 -4.852176E-14 -6.000000E-03 -7.800000E-02
       157 -5.594386E-14 -3.000000E-03 -8.400000E-02
       158 -5.535080E-14 -6.000000E-03 -8.400000E-02
       159 -5.472868E-14 -9.000000E-03 -8.400000E-02
       160 -6.223165E-14 -6.000000E-03 -9.000000E-02
       161  6.000000E-03 -1.200000E-02 -6.000000E-03
       162  3.000000E-03 -1.200000E-02 -1.200000E-02
       163  6.000000E-03 -1.200000E-02 -1.200000E-02
       164  9.000000E-03 -1.200000E-02 -1.200000E-02
       165  6.000000E-03 -1.200000E-02 -1.800000E-02
       166  3.000000E-03 -1.200000E-02 -2.400000E-02
       167  6.000000E-03 -1.200000E-02 -2.400000E-02
       168  9.000000E-03 -1.200000E-02 -2.400000E-02
       169  6.000000E-03 -1.200000E-02 -3.000000E-02
       170  3.000000E-03 -1.200000E-02 -3.600000E-02
       171  6.000000E-03 -1.200000E-02 -3.600000E-02
       172  9.000000E-03 -1.200000E-02 -3.600000E-02
       173  6.000000E-03 -1.200000E-02 -4.200000E-02
       174  3.000000E-03 -1.200000E-02 -4.800000E-02
       175  6.000000E-03 -1.200000E-02 -4.800000E-02
       176  9.000000E-03 -1.200000E-02 -4.800000E-02
       177  6.000000E-03 -1.200000E-02 -5.400000E-02
       178  3.000000E-03 -1.200000E-02 -6.000000E-02
       179  6.000000E-03 -1.200000E-02 -6.000000E-02
       180  9.000000E-03 -1.200000E-02 -6.000000E-02
       181  6.000000E-03 -1.200000E-02 -6.600000E-02
       182  3.000000E-03 -1.200000E-02 -7.200000E-02
       183  6.000000E-03 -1.200000E-02 -7.200000E-02
       184  9.000000E-03 -1.200000E-02 -7.200000E-02
       185  6.000000E-03 -1.200000E-02 -7.800000E-02
       186  3.000000E-03 -1.200000E-02 -8.400000E-02
       187  6.000000E-03 -1.200000E-02 -8.400000E-02
       188  9.000000E-03 -1.200000E-02 -8.400000E-02
       189  6.000000E-03 -1.200000E-02 -9.000000E-02
       190  1.200000E-02 -6.000000E-03 -6.000000E-03
       191  1.200000E-02 -9.000000E-03 -1.200000E-02
       192  1.200000E-02 -6.000000E-03 -1.200000E-02
       193  1.200000E-02 -3.000000E-03 -1.200000E-02
       194  1.200000E-02 -6.000000E-03 -1.800000E-02
       195  1.200000E-02 -9.000000E-03 -2.400000E-02
       196  1.200000E-02 -6.000000E-03 -2.400000E-02
       197  1.200000E-02 -3.000000E-03 -2.400000E-02
       198  1.200000E-02 -6.000000E-03 -3.000000E-02
       199  1.200000E-02 -9.000000E-03 -3.600000E-02
       200  1.200000E-02 -6.000000E-03 -3.600000E-02
       201  1.200000E-02 -3.000000E-03 -3.600000E-02
       202  1.200000E-02 -6.000000E-03 -4.200000E-02
       203  1.200000E-02 -9.000000E-03 -4.800000E-02
       204  1.200000E-02 -6.000000E-03 -4.800000E-02
       205  1.200000E-02 -3.000000E-03 -4.800000E-02
       206  1.200000E-02 -6.000000E-03 -5.400000E-02
       207  1.200000E-02 -9.000000E-03 -6.000000E-02
       208  1.200000E-02 -6.000000E-03 -6.000000E-02
       209  1.200000E-02 -3.000000E-03 -6.000000E-02
       210  1.200000E-02 -6.000000E-03 -6.600000E-02
       211  1.200000E-02 -9.000000E-03 -7.200000E-02
       212  1.200000E-02 -6.000000E-03 -7.200000E-02
       213  1.200000E-02 -3.000000E-03 -7.200000E-02
       214  1.200000E-02 -6.000000E-03 -7.800000E-02
       215  1.200000E-02 -9.000000E-03 -8.400000E-02
       216  1.200000E-02 -6.000000E-03 -8.400000E-02
       217  1.200000E-02 -3.000000E-03 -8.400000E-02
       218  1.200000E-02 -6.000000E-03 -9.000000E-02
       219  6.000000E-03 -6.000000E-03 -6.000000E-03
       220  6.000000E-03 -3.000000E-03 -1.200000E-02
       221  9.000000E-03 -6.000000E-03 -1.200000E-02
       222  6.000000E-03 -6.000000E-03 -1.200000E-02
       223  3.000000E-03 -6.000000E-03 -1.200000E-02
       224  6.000000E-03 -9.000000E-03 -1.200000E-02
       225  6.000000E-03 -6.000000E-03 -1.800000E-02
       226  6.000000E-03 -3.000000E-03 -2.400000E-02
       227  9.000000E-03 -6.000000E-03 -2.400000E-02
       228  6.000000E-03 -6.000000E-03 -2.400000E-02
       229  3.000000E-03 -6.000000E-03 -2.400000E-02
       230  6.000000E-03 -9.000000E-03 -2.400000E-02
       231  6.000000E-03 -6.000000E-03 -3.000000E-02
       232  6.000000E-03 -3.000000E-03 -3.600000E-02
       233  9.000000E-03 -6.000000E-03 -3.600000E-02
       234  6.000000E-03 -6.000000E-03 -3.600000E-02
       235  3.000000E-03 -6.000000E-03 -3.600000E-02
       236  6.000000E-03 -9.000000E-03 -3.600000E-02
       237  6.000000E-03 -6.000000E-03 -4.200000E-02
       238  6.000000E-03 -3.000000E-03 -4.800000E-02
       239  9.000000E-03 -6.000000E-03 -4.800000E-02
       240  6.000000E-03 -6.000000E-03 -4.800000E-02
       241  3.000000E-03 -6.000000E-03 -4.800000E-02
       242  6.000000E-03 -9.000000E-03 -4.800000E-02
       243  6.000000E-03 -6.000000E-03 -5.400000E-02
       244  6.000000E-03 -3.000000E-03 -6.000000E-02
       245  9.000000E-03 -6.000000E-03 -6.000000E-02
       246  6.000000E-03 -6.000000E-03 -6.000000E-02
       247  3.000000E-03 -6.000000E-03 -6.000000E-02
       248  6.000000E-03 -9.000000E-03 -6.000000E-02
       249  6.000000E-03 -6.000000E-03 -6.600000E-02
       250  6.000000E-03 -3.000000E-03 -7.200000E-02
       251  9.000000E-03 -6.000000E-03 -7.200000E-02
       252  6.000000E-03 -6.000000E-03 -7.200000E-02
       253  3.000000E-03 -6.000000E-03 -7.200000E-02
       254  6.000000E-03 -9.000000E-03 -7.200000E-02
       255  6.000000E-03 -6.000000E-03 -7.800000E-02
       256  6.000000E-03 -3.000000E-03 -8.400000E-02
       257  9.000000E-03 -6.000000E-03 -8.400000E-02
       258  6.000000E-03 -6.000000E-03 -8.400000E-02
       259  3.000000E-03 -6.000000E-03 -8.400000E-02
       260  6.000000E-03 -9.000000E-03 -8.400000E-02
       261  6.000000E-03 -6.000000E-03 -9.000000E-02

 temperatures for set NALL and time  0.1000000E+01

         1  0.000000E+00
         2  0.000000E+00
         3  0.000000E+00
         4  0.000000E+00
         5  0.000000E+00
         6  0.000000E+00
         7  0.000000E+00
         8  0.000000E+00
         9  0.000000E+00
        10  0.000000E+00
        11  0.000000E+00
        12  0.000000E+00
        13  0.000000E+00
        14  0.000000E+00
        15  0.000000E+00
        16  0.000000E+00
        17  0.000000E+00
        18  0.000000E+00
        19  0.000000E+00
        20  0.000000E+00
        21  0.000000E+00
        22  0.000000E+00
        23  0.000000E+00
        24  0.000000E+00
        25  0.000000E+00
        26  0.000000E+00
        27  0.000000E+00
        28  0.000000E+00
        29  0.000000E+00
        30  0.000000E+00
        31  0.000000E+00
        32  0.000000E+00
        33  0.000000E+00
        34  0.000000E+00
        35  0.000000E+00
        36  0.000000E+00
        37  0.000000E+00
        38  0.000000E+00
        39  0.000000E+00
        40  0.000000E+00
        41  0.000000E+00
        42  0.000000E+00
        43  0.000000E+00
        44  0.000000E+00
        45  0.000000E+00
        46  0.000000E+00
        47  0.000000E+00
        48  0.000000E+00
        49  0.000000E+00
        50  0.000000E+00
        51  0.000000E+00
        52  0.000000E+00
        53  0.000000E+00
        54  0.000000E+00
        55  0.000000E+00
        56  0.000000E+00
        57  0.000000E+00
        58  0.000000E+00
        59  0.000000E+00
        60  0.000000E+00
        61  0.000000E+00
        62  0.000000E+00
        63  0.000000E+00
        64  0.000000E+00
        65  0.000000E+00
        66  0.000000E+00
        67  0.000000E+00
        68  0.000000E+00
        69  0.000000E+00
        70  0.000000E+00
        71  0.000000E+00
        72  0.000000E+00
        73  0.000000E+00
        74  0.000000E+00
        75  0.000000E+00
        76  0.000000E+00
        77  0.000000E+00
        78  0.000000E+00
        79  0.000000E+00
        80  0.000000E+00
        81  0.000000E+00
        82  0.000000E+00
        83  0.000000E+00
        84  0.000000E+00
        85  0.000000E+00
        86  0.000000E+00
        87  0.000000E+00
        88  0.000000E+00
        89  0.000000E+00
        90  0.000000E+00
        91  0.000000E+00
        92  0.000000E+00
        93  0.000000E+00
        94  0.000000E+00
        95  0.000000E+00
        96  0.000000E+00
        97  0.000000E+00
        98  0.000000E+00
        99  0.000000E+00
       100  0.000000E+00
       101  0.000000E+00
       102  0.000000E+00
       103  0.000000E+00
       104  0.000000E+00
       105  0.000000E+00
       106  0.000000E+00
       107  0.000000E+00
       108  0.000000E+00
       109  0.000000E+00
       110  0.000000E+00
       111  0.000000E+00
       112  0.000000E+00
       113  0.000000E+00
       114  0.000000E+00
       115  0.000000E+00
       116  0.000000E+00
       117  0.000000E+00
       118  0.000000E+00
       119  0.000000E+00
       120  0.000000E+00
       121  0.000000E+00
       122  0.000000E+00
       123  0.000000E+00
       124  0.000000E+00
       125  0.000000E+00
       126  0.000000E+00
       127  0.000000E+00
       128  0.000000E+00
       129  0.000000E+00
       130  0.000000E+00
       131  0.000000E+00
       132  0.000000E+00
       133  0.000000E+00
       134  0.000000E+00
       135  0.000000E+00
       136  0.000000E+00
       137  0.000000E+00
       138  0.000000E+00
       139  0.000000E+00
       140  0.000000E+00
       141  0.000000E+00
       142  0.000000E+00
       143  0.000000E+00
       144  0.000000E+00
       145  0.000000E+00
       146  0.000000E+00
       147  0.000000E+00
       148  0.000000E+00
       149  0.000000E+00
       150  0.000000E+00
       151  0.000000E+00
       152  0.000000E+00
       153  0.000000E+00
       154  0.000000E+00
       155  0.000000E+00
       156  0.000000E+00
       157  0.000000E+00
       158  0.000000E+00
       159  0.000000E+00
       160  0.000000E+00
       161  0.000000E+00
       162  0.000000E+00
       163  0.000000E+00
       164  0.000000E+00
       165  0.000000E+00
       166  0.000000E+00
       167  0.000000E+00
       168  0.000000E+00
       169  0.000000E+00
       170  0.000000E+00
       171  0.000000E+00
       172  0.000000E+00
       173  0.000000E+00
       174  0.000000E+00
       175  0.000000E+00
       176  0.000000E+00
       177  0.000000E+00
       178  0.000000E+00
       179  0.000000E+00
       180  0.000000E+00
       181  0.000000E+00
       182  0.000000E+00
       183  0.000000E+00
       184  0.000000E+00
       185  0.000000E+00
       186  0.000000E+00
       187  0.000000E+00
       188  0.000000E+00
       189  0.000000E+00
       190  0.000000E+00
       191  0.000000E+00
       192  0.000000E+00
       193  0.000000E+00
       194  0.000000E+00
       195  0.000000E+00
       196  0.000000E+00
       197  0.000000E+00
       198  0.000000E+00
       199  0.000000E+00
       200  0.000000E+00
       201  0.000000E+00
       202  0.000000E+00
       203  0.000000E+00
       204  0.000000E+00
       205  0.000000E+00
       206  0.000000E+00
       207  0.000000E+00
       208  0.000000E+00
       209  0.000000E+00
       210  0.000000E+00
       211  0.000000E+00
       212  0.000000E+00
       213  0.000000E+00
       214  0.000000E+00
       215  0.000000E+00
       216  0.000000E+00
       217  0.000000E+00
       218  0.000000E+00
       219  0.000000E+00
       220  0.000000E+00
       221  0.000000E+00
       222  0.000000E+00
       223  0.000000E+00
       224  0.000000E+00
       225  0.000000E+00
       226  0.000000E+00
       227  0.000000E+00
       228  0.000000E+00
       229  0.000000E+00
       230  0.000000E+00
       231  0.000000E+00
       232  0.000000E+00
       233  0.000000E+00
       234  0.000000E+00
       235  0.000000E+00
       236  0.000000E+00
       237  0.000000E+00
       238  0.000000E+00
       239  0.000000E+00
       240  0.000000E+00
       241  0.000000E+00
       242  0.000000E+00
       243  0.000000E+00
       244  0.000000E+00
       245  0.000000E+00
       246  0.000000E+00
       247  0.000000E+00
       248  0.000000E+00
       249  0.000000E+00
       250  0.000000E+00
       251  0.000000E+00
       252  0.000000E+00
       253  0.000000E+00
       254  0.000000E+00
       255  0.000000E+00
       256  0.000000E+00
       257  0.000000E+00
       258  0.000000E+00
       259  0.000000E+00
       260  0.000000E+00
       261  0.000000E+00

 stresses (elem, integ.pnt.,sxx,syy,szz,sxy,sxz,syz) for set EALL and time  0.1000000E+01

         1   1 -2.472982E-11  9.548652E-11 -5.891721E-11  3.117498E-11 -1.528975E-11  7.159738E-11
         1   2 -2.550044E-11 -2.802246E-11  7.538041E-11 -1.500953E-11  1.261011E-12 -7.460979E-12
         1   3  3.558852E-11  5.856693E-11 -2.435151E-10  1.660331E-11  1.331067E-12  1.716375E-11
         1   4  3.054448E-11 -8.126512E-12 -9.163343E-11  5.324267E-12  0.000000E+00  2.784732E-12
         1   5 -1.695359E-11 -2.592077E-11 -1.010210E-10 -6.777932E-12 -5.534435E-12 -1.667336E-11
         1   6  2.101684E-12 -7.005614E-13  6.599288E-11 -1.099881E-11 -2.226034E-11  1.307423E-11
         1   7 -6.515221E-12 -2.024622E-11 -2.491897E-10  5.604491E-13  7.776232E-12  2.479987E-11
         1   8  3.222582E-12 -1.401123E-13 -8.869107E-11  1.891516E-12 -4.553649E-12  1.331067E-11
         2   1  1.190954E-12 -3.572863E-12  2.091176E-10  7.093184E-12 -5.446865E-12 -5.184154E-12
         2   2  3.670942E-11  8.014422E-11  4.077267E-10 -4.488847E-11 -2.663885E-11  5.986297E-11
         2   3  1.415134E-11  6.305053E-12  2.872302E-11 -1.828465E-11 -4.413537E-12  1.681347E-12
         2   4  1.190954E-11  3.740998E-11  2.038634E-10 -9.107298E-12 -6.970586E-12  1.164683E-11
         2   5 -1.478185E-11 -7.215782E-12  1.740895E-10  1.071859E-11 -1.481687E-11  1.747901E-11
         2   6 -1.954566E-11 -2.430948E-11  3.380209E-10  1.296039E-11  9.606448E-12 -2.158605E-11
         2   7 -1.611291E-12  3.502807E-13  2.585072E-11 -3.152526E-12 -1.064853E-11  1.106887E-11
         2   8 -6.795446E-12 -2.248802E-11  1.795539E-10  4.168340E-12 -4.868902E-12  1.341575E-11
         3   1 -7.566063E-12  1.597280E-11 -3.945562E-10 -2.942358E-12 -3.205068E-12  4.343481E-12
         3   2  6.024828E-12  1.807448E-11 -2.226384E-10  2.042136E-11 -1.716375E-12  8.862102E-12
         3   3 -8.126512E-12 -7.005614E-12 -5.750208E-10  2.522021E-12 -3.432751E-12  6.865502E-12
         3   4  6.935558E-12  1.366095E-11 -3.985494E-10 -1.576263E-12 -6.305053E-13 -5.254211E-13
         3   5 -7.706175E-13  7.355895E-12 -3.535733E-10 -3.748004E-12  3.012414E-12  3.257611E-11
         3   6  4.203368E-13 -1.261011E-12 -2.049843E-10  1.786432E-12 -3.975686E-12  1.910781E-11
         3   7 -3.152526E-12 -2.031628E-12 -5.367001E-10 -7.986400E-12  6.795446E-12  1.176943E-11
         3   8 -2.101684E-12 -7.706175E-12 -3.781630E-10 -2.732189E-12 -5.254211E-12  8.389223E-12
         4   1  1.057848E-11  6.375109E-12 -1.034729E-10 -1.331067E-11 -2.609591E-12  7.776232E-12
         4   2  2.101684E-12  1.246999E-11  6.375109E-11 -3.695461E-12  4.466079E-13  0.000000E+00
         4   3  1.331067E-12  3.292639E-12 -2.842178E-10 -4.763818E-12  1.190954E-12 -2.101684E-13
         4   4 -2.592077E-12 -6.795446E-12 -1.208468E-10 -2.189254E-12 -3.047442E-12  6.182454E-12
         4   5 -4.203368E-13 -6.305053E-12 -9.345489E-11 -6.585277E-12 -6.094884E-12  1.625302E-11
         4   6  6.445165E-12  2.802246E-12  7.089681E-11  2.504507E-12 -7.075670E-12  2.157729E-11
         4   7 -1.821460E-12 -8.266625E-12 -2.613094E-10  7.005614E-13 -5.114098E-12  6.585277E-12
         4   8  1.050842E-12 -7.075670E-12 -1.059949E-10 -1.751404E-13 -1.681347E-12  4.185854E-12
         5   1  7.145726E-12  9.947972E-12 -8.448771E-11  2.136712E-12 -1.961572E-12  2.084170E-11
         5   2 -3.012414E-12  1.751404E-12  5.499407E-11  1.518467E-11 -9.334981E-12 -1.164683E-12
         5   3  2.732189E-12  2.178746E-11 -2.312553E-10 -4.063256E-12 -1.036831E-11  2.129707E-11
         5   4 -1.471179E-12  3.012414E-12 -9.170349E-11  4.273425E-12 -9.877916E-12  6.375109E-12
         5   5 -7.776232E-12 -4.973986E-12 -1.010910E-10 -7.688661E-12 -7.005614E-13 -1.751404E-12
         5   6 -4.903930E-12  1.401123E-13  4.301447E-11 -7.233296E-12 -1.208468E-11  1.326688E-11
         5   7  5.464379E-12 -2.662133E-12 -2.231989E-10  1.261011E-12 -1.961572E-12  2.157729E-11
         5   8 -1.961572E-12 -5.884716E-12 -9.051253E-11 -3.012414E-12 -5.814660E-12  6.024828E-12
         6   1  1.268016E-11  5.114098E-12  1.707268E-10 -1.147169E-11 -3.783032E-12 -1.856488E-12
         6   2  1.050842E-11  1.162932E-11  3.111894E-10 -2.381909E-12 -1.136661E-11  1.671715E-11
         6   3 -9.107298E-13 -3.993200E-12  1.674342E-11 -1.751404E-12 -2.381909E-12  1.261011E-12
         6   4  1.359089E-11  2.255808E-11  1.733189E-10 -2.434451E-12  1.716375E-12  3.397723E-12
         6   5 -5.184154E-12 -1.541235E-12  1.469778E-10 -1.996600E-12 -9.212382E-12  8.546849E-12
         6   6 -7.425951E-12 -1.078865E-11  2.859692E-10  2.276825E-12 -7.881316E-13 -5.578220E-12
         6   7 -3.712975E-12 -3.712975E-12  1.197960E-11 -5.534435E-12 -3.222582E-12  3.362695E-12
         6   8 -4.833874E-12 -1.352084E-11  1.504105E-10  3.835574E-12 -1.155926E-12  1.856488E-12
         7   1 -7.566063E-12 -6.445165E-12 -3.502807E-10  2.872302E-12 -1.008808E-11  9.597691E-12
         7   2 -2.241796E-12 -5.604491E-13 -2.048442E-10 -4.553649E-13 -9.422551E-12  1.392366E-11
         7   3  1.611291E-12  5.254211E-12 -4.795343E-10  9.807860E-13  3.362695E-12  3.082470E-12
         7   4  7.005614E-14  7.636119E-12 -3.401226E-10  2.241796E-12  1.120898E-12  5.254211E-12
         7   5  5.604491E-12  5.604491E-12 -3.245000E-10  2.101684E-12 -3.572863E-12  2.171740E-11
         7   6 -1.961572E-12 -7.285839E-12 -1.911132E-10  2.872302E-12 -3.975686E-12  1.075362E-11
         7   7  7.636119E-12  2.592077E-12 -4.592180E-10  2.381909E-12 -4.483593E-12  5.884716E-12
         7   8  2.732189E-12  1.891516E-12 -3.206470E-10 -2.697161E-12 -2.732189E-12 -3.642919E-12
         8   1 -3.222582E-12  1.821460E-12 -9.149332E-11  7.005614E-14  7.005614E-14  1.134909E-11
         8   2 -1.541235E-12 -1.022820E-11  5.002008E-11  4.063256E-12  3.494050E-12 -2.574563E-12
         8   3  7.986400E-12  1.078865E-11 -2.246000E-10  1.190954E-12  3.642919E-12  5.324267E-12
         8   4  5.604491E-13 -7.846288E-12 -8.743006E-11 -5.359295E-12 -4.098284E-12  4.343481E-12
         8   5 -4.973986E-12 -6.094884E-12 -8.820068E-11  8.757018E-13  1.891516E-12  7.215782E-12
         8   6 -2.381909E-12 -1.541235E-12  5.310255E-11 -2.959872E-12 -3.695461E-12  5.079070E-12
         8   7 -1.751404E-12  8.897130E-12 -2.102385E-10  4.203368E-12  7.986400E-12  2.802246E-13
         8   8  1.541235E-12 -7.005614E-13 -7.187760E-11 -2.714675E-12  3.432751E-12 -2.942358E-12
         9   1 -1.008808E-11  5.044042E-12 -1.078865E-10 -1.856488E-12 -7.636119E-12  2.367898E-11
         9   2 -7.496007E-12 -4.133312E-12  3.621902E-11 -3.712975E-12 -1.378355E-11  5.227939E-12
         9   3 -5.044042E-12 -3.362695E-12 -2.320259E-10  4.133312E-12 -2.241796E-12  2.017617E-11
         9   4  4.133312E-12 -9.107298E-13 -7.517024E-11 -2.311853E-12 -1.471179E-12  1.712873E-11
         9   5 -1.541235E-12  1.541235E-12 -1.329666E-10 -1.751404E-14  7.005614E-14  2.017617E-11
         9   6  2.802246E-13 -3.362695E-12 -5.604491E-13 -3.765518E-12 -2.373152E-11  1.675217E-11
         9   7  2.802246E-13 -1.120898E-12 -2.250203E-10  4.483593E-12  6.725389E-12  3.698964E-11
         9   8 -1.261011E-11 -6.725389E-12 -1.118096E-10  2.522021E-12 -1.338072E-11  2.035131E-11
        10   1  9.107298E-13 -1.611291E-12  1.345778E-10 -4.518621E-12 -5.324267E-12  2.942358E-12
        10   2  7.215782E-12  8.336681E-12  2.804347E-10 -7.320867E-12 -1.210220E-11  1.101633E-11
        10   3  4.203368E-12  2.522021E-12  2.606088E-11 -2.241796E-12 -2.802246E-13  8.686961E-12
        10   4 -7.005614E-13  1.261011E-12  1.506207E-10  7.531035E-13 -2.907330E-12  4.413537E-12
        10   5 -2.311853E-12 -2.031628E-12  1.072560E-10 -1.208468E-12 -7.986400E-12  1.369598E-11
        10   6 -1.050842E-12 -7.706175E-13  2.522722E-10  1.155926E-12 -9.588934E-12 -2.040385E-12
        10   7 -9.177354E-12 -3.012414E-12 -1.422140E-11  1.961572E-12 -2.101684E-12  1.555246E-11
        10   8  3.502807E-13 -1.891516E-12  1.463473E-10 -7.706175E-13 -4.133312E-12  7.250811E-12
        11   1 -2.732189E-12 -6.655333E-12 -3.193859E-10  9.457579E-13  3.853088E-12  1.940555E-11
        11   2 -3.993200E-12 -7.636119E-12 -1.732488E-10  6.655333E-13  3.135012E-12  1.138412E-11
        11   3 -3.432751E-12 -1.268016E-11 -4.456271E-10 -7.005614E-13  8.406737E-12  8.126512E-12
        11   4  1.401123E-13 -7.005614E-13 -2.999804E-10 -5.079070E-12  8.126512E-12  4.483593E-12
        11   5 -9.107298E-13 -3.152526E-12 -2.864596E-10 -3.432751E-12  5.324267E-12  3.439756E-11
        11   6 -1.120898E-11 -4.203368E-12 -1.776624E-10 -4.413537E-12 -3.327667E-12  1.660331E-11
        11   7  5.604491E-13 -5.324267E-12 -3.923144E-10 -8.406737E-13 -3.923144E-12  1.681347E-12
        11   8  5.394323E-12 -1.611291E-12 -2.669840E-10  3.818060E-12  0.000000E+00 -4.203368E-12
        12   1  1.751404E-12 -5.254211E-12 -5.933755E-11  7.706175E-13 -6.655333E-13  1.246999E-11
        12   2 -5.604491E-12 -1.569258E-11  5.772626E-11  5.254211E-14 -1.909030E-12 -2.276825E-13
        12   3  3.783032E-12 -4.063256E-12 -2.055447E-10 -7.005614E-13  1.106887E-11  4.203368E-12
        12   4  2.872302E-12 -1.758409E-11 -6.634316E-11  2.802246E-13  1.576263E-12  8.616905E-12
        12   5 -2.732189E-12 -1.331067E-12 -8.063462E-11 -4.413537E-12 -4.308453E-12  1.008808E-11
        12   6  3.362695E-12  5.604491E-12  7.117704E-11 -1.576263E-12 -3.494050E-12  8.214082E-12
        12   7 -2.381909E-12 -3.222582E-12 -1.783629E-10 -1.681347E-12  8.406737E-12 -5.884716E-12