
 displacements (vx,vy,vz) for set NALL and time  0.2500000E+00

         1  0.000000E+00  0.000000E+00  0.000000E+00
         2 -5.882994E-03  0.000000E+00  0.000000E+00
         3 -2.445458E-04  1.821093E-03  0.000000E+00
         4 -5.639109E-03  1.820708E-03  0.000000E+00
         5 -2.969720E-03  1.856912E-01  9.716255E-03
         6 -2.841071E-03  1.856919E-01  9.708469E-03
         7 -2.703893E-03  1.855698E-01 -1.445856E-02
         8 -3.108460E-03  1.855690E-01 -1.445061E-02
         9 -1.565577E-03  3.602666E-03  0.000000E+00
        10 -2.941410E-03  4.400174E-03  0.000000E+00
        11 -4.317327E-03  3.602786E-03  0.000000E+00
        12 -3.617427E-03  1.249939E-03  0.000000E+00
        13 -2.839228E-03  2.493694E-03  0.000000E+00
        14 -2.131862E-03  2.030552E-03  0.000000E+00
        15 -1.655024E-03  4.843576E-03  0.000000E+00
        16 -2.941778E-03  3.829917E-03  0.000000E+00
        17 -4.228624E-03  4.843570E-03  0.000000E+00
        18 -3.751413E-03  2.030199E-03  0.000000E+00
        19 -3.043884E-03  2.493290E-03  0.000000E+00
        20 -2.265569E-03  1.249719E-03  0.000000E+00
        21 -2.926619E-03  1.872336E-01  1.061232E-02
        22 -2.905386E-03  1.895230E-01  1.140323E-02
        23 -2.884163E-03  1.872339E-01  1.060843E-02
        24 -2.664840E-03  1.860164E-01  3.836476E-03
        25 -2.780060E-03  1.860863E-01 -2.309821E-03
        26 -2.715833E-03  1.858539E-01 -8.409706E-03
        27 -2.823550E-03  1.855719E-01 -1.435861E-02
        28 -2.906206E-03  1.855732E-01 -1.429749E-02
        29 -2.988834E-03  1.855716E-01 -1.435467E-02
        30 -3.096169E-03  1.858531E-01 -8.401822E-03
        31 -3.031576E-03  1.860856E-01 -2.302006E-03
        32 -3.146388E-03  1.860157E-01  3.844272E-03
        33 -4.780179E-03  6.634769E-03  5.500869E-03
        34 -3.597074E-03  1.608730E-02  9.500801E-03
        35 -3.235095E-03  2.864613E-02  1.118350E-02
        36 -3.006571E-03  4.100016E-02  1.145915E-02
        37 -2.959235E-03  5.338790E-02  1.141483E-02
        38 -2.911048E-03  6.548033E-02  1.123595E-02
        39 -2.934315E-03  7.756840E-02  1.107605E-02
        40 -2.927761E-03  8.955694E-02  1.092802E-02
        41 -2.935952E-03  1.016336E-01  1.078345E-02
        42 -2.911421E-03  1.136031E-01  1.064269E-02
        43 -2.937160E-03  1.257226E-01  1.049412E-02
        44 -2.884095E-03  1.376022E-01  1.035321E-02
        45 -2.973205E-03  1.498054E-01  1.023907E-02
        46 -2.831260E-03  1.613503E-01  1.017641E-02
        47 -3.107496E-03  1.741998E-01  1.013762E-02
        48 -2.711093E-03  1.741991E-01  1.014538E-02
        49 -2.995114E-03  1.613497E-01  1.018408E-02
        50 -2.860819E-03  1.498048E-01  1.024652E-02
        51 -2.957328E-03  1.376016E-01  1.036037E-02
        52 -2.911318E-03  1.257220E-01  1.050088E-02
        53 -2.943669E-03  1.136026E-01  1.064898E-02
        54 -2.925233E-03  1.016331E-01  1.078917E-02
        55 -2.938906E-03  8.955648E-02  1.093311E-02
        56 -2.937157E-03  7.756795E-02  1.108043E-02
        57 -2.964461E-03  6.547989E-02  1.123954E-02
        58 -2.919480E-03  5.338744E-02  1.141757E-02
        59 -2.874400E-03  4.099967E-02  1.146099E-02
        60 -2.647122E-03  2.864551E-02  1.118451E-02
        61 -2.285653E-03  1.608676E-02  9.501138E-03
        62 -1.102697E-03  6.634312E-03  5.500935E-03
        63 -9.226345E-04  5.210101E-03 -5.445861E-03
        64 -2.401147E-03  1.714460E-02 -9.763219E-03
        65 -3.001673E-03  2.913696E-02 -1.167725E-02
        66 -2.913784E-03  4.115829E-02 -1.238794E-02
        67 -2.962828E-03  5.318900E-02 -1.270927E-02
        68 -2.938945E-03  6.522332E-02 -1.288072E-02
        69 -2.943480E-03  7.725859E-02 -1.301246E-02
        70 -2.929113E-03  8.929382E-02 -1.314599E-02
        71 -2.935011E-03  1.013288E-01 -1.328901E-02
        72 -2.922243E-03  1.133640E-01 -1.342379E-02
        73 -2.931731E-03  1.253988E-01 -1.357490E-02
        74 -2.897391E-03  1.374340E-01 -1.371047E-02
        75 -2.935890E-03  1.494681E-01 -1.389295E-02
        76 -2.884888E-03  1.615020E-01 -1.408225E-02
        77 -2.847344E-03  1.735352E-01 -1.429890E-02
        78 -4.961018E-03  5.209118E-03 -5.445846E-03
        79 -3.483371E-03  1.714362E-02 -9.763061E-03
        80 -2.882555E-03  2.913600E-02 -1.167628E-02
        81 -2.968967E-03  4.115736E-02 -1.238602E-02
        82 -2.917510E-03  5.318809E-02 -1.270648E-02
        83 -2.938128E-03  6.522243E-02 -1.287710E-02
        84 -2.929535E-03  7.725772E-02 -1.300807E-02
        85 -2.939126E-03  8.929297E-02 -1.314090E-02
        86 -2.927808E-03  1.013280E-01 -1.328329E-02
        87 -2.934507E-03  1.133632E-01 -1.341750E-02
        88 -2.918453E-03  1.253980E-01 -1.356813E-02
        89 -2.945778E-03  1.374332E-01 -1.370331E-02
        90 -2.899938E-03  1.494673E-01 -1.388548E-02
        91 -2.943294E-03  1.615012E-01 -1.407456E-02
        92 -2.972997E-03  1.735344E-01 -1.429107E-02
        93 -2.941492E-03  3.555924E-03  0.000000E+00
        94 -3.072239E-03  2.343931E-03  0.000000E+00
        95 -2.941510E-03  3.094667E-03  0.000000E+00
        96 -2.810785E-03  2.344186E-03  0.000000E+00
        97 -2.941725E-03  3.321285E-03  0.000000E+00
        98 -2.905612E-03  1.875272E-01  3.886792E-03
        99 -3.031720E-03  1.861016E-01 -2.304496E-03
       100 -2.905819E-03  1.859018E-01 -2.353466E-03
       101 -2.779912E-03  1.861020E-01 -2.308405E-03
       102 -2.906012E-03  1.857182E-01 -8.312739E-03
       103 -2.941417E-03  7.277665E-03  5.651161E-03
       104 -2.581738E-03  1.649894E-02  9.589207E-03
       105 -2.941416E-03  1.712631E-02  9.472720E-03
       106 -3.301064E-03  1.649918E-02  9.589018E-03
       107 -2.941169E-03  2.851356E-02  1.126085E-02
       108 -2.912648E-03  4.119479E-02  1.148523E-02
       109 -2.940552E-03  4.130683E-02  1.149369E-02
       110 -2.968421E-03  4.119504E-02  1.148429E-02
       111 -2.939419E-03  5.332711E-02  1.143549E-02
       112 -2.950330E-03  6.551064E-02  1.123649E-02
       113 -2.937818E-03  6.556676E-02  1.123479E-02
       114 -2.925274E-03  6.551086E-02  1.123470E-02
       115 -2.935792E-03  7.753107E-02  1.107975E-02
       116 -2.936337E-03  8.959431E-02  1.093170E-02
       117 -2.933384E-03  8.962953E-02  1.093071E-02
       118 -2.930405E-03  8.959454E-02  1.092917E-02
       119 -2.930636E-03  1.015985E-01  1.078430E-02
       120 -2.935869E-03  1.136670E-01  1.064143E-02
       121 -2.927585E-03  1.137181E-01  1.063386E-02
       122 -2.919281E-03  1.136673E-01  1.063831E-02
       123 -2.924271E-03  1.256421E-01  1.051290E-02
       124 -2.938888E-03  1.377511E-01  1.037793E-02
       125 -2.920738E-03  1.379558E-01  1.039236E-02
       126 -2.902574E-03  1.377514E-01  1.037437E-02
       127 -2.917031E-03  1.495829E-01  1.020881E-02
       128 -2.948509E-03  1.619560E-01  1.011742E-02
       129 -2.913200E-03  1.623235E-01  1.008518E-02
       130 -2.877884E-03  1.619563E-01  1.011360E-02
       131 -2.909296E-03  1.735660E-01  1.039480E-02
       132 -2.851322E-03  6.093309E-03  4.444604E-05
       133 -3.391111E-03  1.577523E-02  4.458018E-03
       134 -2.935509E-03  1.585798E-02  2.508576E-04
       135 -2.501838E-03  1.631311E-02 -4.216066E-03
       136 -3.048653E-03  2.833085E-02 -2.678957E-04
       137 -2.974438E-03  4.100979E-02  5.430712E-03
       138 -3.002325E-03  4.104938E-02 -5.043168E-04
       139 -2.984728E-03  4.110497E-02 -6.493172E-03
       140 -2.948439E-03  5.325028E-02 -6.949823E-04
       141 -2.939673E-03  6.542610E-02  5.204461E-03
       142 -2.952577E-03  6.537092E-02 -8.345156E-04
       143 -2.940710E-03  6.529123E-02 -6.849255E-03
       144 -2.935400E-03  7.739839E-02 -9.696947E-04
       145 -2.931163E-03  8.950783E-02  4.909118E-03
       146 -2.940699E-03  8.945621E-02 -1.110288E-03
       147 -2.936192E-03  8.937664E-02 -7.131215E-03
       148 -2.927359E-03  1.014689E-01 -1.249117E-03
       149 -2.927602E-03  1.135650E-01  4.619446E-03
       150 -2.937019E-03  1.135330E-01 -1.400212E-03
       151 -2.930263E-03  1.134490E-01 -7.411322E-03
       152 -2.922876E-03  1.255234E-01 -1.536598E-03
       153 -2.908897E-03  1.376136E-01  4.339031E-03
       154 -2.959046E-03  1.376052E-01 -1.699141E-03
       155 -2.926315E-03  1.375169E-01 -7.704732E-03
       156 -2.883451E-03  1.495752E-01 -1.794724E-03
       157 -2.918093E-03  1.614711E-01  4.071015E-03
       158 -2.947603E-03  1.616759E-01 -1.986950E-03
       159 -2.918658E-03  1.615897E-01 -8.050172E-03
       160 -2.871467E-03  1.736639E-01 -2.220884E-03
       161 -2.941660E-03  5.204663E-03 -5.651298E-03
       162 -2.640065E-03  1.713795E-02 -1.002894E-02
       163 -2.942243E-03  1.713916E-02 -9.968728E-03
       164 -3.244449E-03  1.713747E-02 -1.002874E-02
       165 -2.942179E-03  2.913365E-02 -1.179440E-02
       166 -2.935117E-03  4.115941E-02 -1.233120E-02
       167 -2.941445E-03  4.115915E-02 -1.233188E-02
       168 -2.947760E-03  4.115895E-02 -1.233026E-02
       169 -2.940252E-03  5.318849E-02 -1.270995E-02
       170 -2.937074E-03  6.522317E-02 -1.287648E-02
       171 -2.938593E-03  6.522331E-02 -1.286083E-02
       172 -2.940085E-03  6.522273E-02 -1.287468E-02
       173 -2.936566E-03  7.725807E-02 -1.301388E-02
       174 -2.932045E-03  8.929365E-02 -1.314293E-02
       175 -2.934168E-03  8.929341E-02 -1.314282E-02
       176 -2.936268E-03  8.929322E-02 -1.314039E-02
       177 -2.931446E-03  1.013285E-01 -1.328099E-02
       178 -2.925351E-03  1.133636E-01 -1.343021E-02
       179 -2.928413E-03  1.133632E-01 -1.343673E-02
       180 -2.931456E-03  1.133632E-01 -1.342707E-02
       181 -2.925125E-03  1.253987E-01 -1.356123E-02
       182 -2.910361E-03  1.374332E-01 -1.373333E-02
       183 -2.921609E-03  1.374325E-01 -1.375416E-02
       184 -2.932847E-03  1.374328E-01 -1.372976E-02
       185 -2.917934E-03  1.494687E-01 -1.384701E-02
       186 -2.896275E-03  1.615018E-01 -1.407891E-02
       187 -2.914104E-03  1.615015E-01 -1.408189E-02
       188 -2.931924E-03  1.615014E-01 -1.407507E-02
       189 -2.910165E-03  1.735355E-01 -1.426744E-02
       190 -3.031981E-03  6.092813E-03  4.443877E-05
       191 -3.382011E-03  1.631223E-02 -4.215853E-03
       192 -2.947866E-03  1.585716E-02  2.511804E-04
       193 -2.491931E-03  1.577457E-02  4.458373E-03
       194 -2.834385E-03  2.833003E-02 -2.669111E-04
       195 -2.897484E-03  4.110406E-02 -6.491268E-03
       196 -2.879385E-03  4.104856E-02 -5.024490E-04
       197 -2.906841E-03  4.100912E-02  5.432556E-03
       198 -2.930959E-03  5.324954E-02 -6.922177E-04
       199 -2.935891E-03  6.529044E-02 -6.845634E-03
       200 -2.923603E-03  6.537023E-02 -8.309039E-04
       201 -2.936144E-03  6.542553E-02  5.208066E-03
       202 -2.936738E-03  7.739773E-02 -9.653072E-04
       203 -2.931581E-03  8.937587E-02 -7.126123E-03
       204 -2.926661E-03  8.945555E-02 -1.105194E-03
       205 -2.935823E-03  8.950726E-02  4.914213E-03
       206 -2.934542E-03  1.014683E-01 -1.243385E-03
       207 -2.926015E-03  1.134482E-01 -7.405031E-03
       208 -2.918830E-03  1.135323E-01 -1.393921E-03
       209 -2.927847E-03  1.135644E-01  4.625740E-03
       210 -2.926388E-03  1.255227E-01 -1.529829E-03
       211 -2.916382E-03  1.375161E-01 -7.697572E-03
       212 -2.883202E-03  1.376044E-01 -1.691979E-03
       213 -2.932925E-03  1.376130E-01  4.346197E-03
       214 -2.951429E-03  1.495745E-01 -1.787255E-03
       215 -2.909044E-03  1.615890E-01 -8.042484E-03
       216 -2.879647E-03  1.616752E-01 -1.979271E-03
       217 -2.908712E-03  1.614704E-01  4.078692E-03
       218 -2.947989E-03  1.736632E-01 -2.213093E-03
       219 -2.941656E-03  7.034917E-03  1.864512E-05
       220 -2.941550E-03  1.641079E-02  4.525557E-03
       221 -2.964811E-03  1.604335E-02  1.839912E-04
       222 -2.941704E-03  1.588653E-02  1.572326E-04
       223 -2.918597E-03  1.604376E-02  1.837685E-04
       224 -2.941963E-03  1.644510E-02 -4.413696E-03
       225 -2.941568E-03  2.854027E-02 -2.752118E-04
       226 -2.940716E-03  4.108855E-02  5.448980E-03
       227 -2.906683E-03  4.096361E-02 -4.913310E-04
       228 -2.940930E-03  4.093726E-02 -5.004656E-04
       229 -2.975141E-03  4.096398E-02 -4.922643E-04
       230 -2.941168E-03  4.102170E-02 -6.474210E-03
       231 -2.939767E-03  5.328732E-02 -6.651509E-04
       232 -2.937971E-03  6.544279E-02  5.202759E-03
       233 -2.932797E-03  6.534484E-02 -8.365180E-04
       234 -2.938153E-03  6.530713E-02 -8.395469E-04
       235 -2.943477E-03  6.534519E-02 -8.383135E-04
       236 -2.938362E-03  6.526610E-02 -6.836743E-03
       237 -2.936125E-03  7.741542E-02 -9.668671E-04
       238 -2.933544E-03  8.952155E-02  4.909844E-03
       239 -2.930112E-03  8.943426E-02 -1.103983E-03
       240 -2.933730E-03  8.941604E-02 -1.104436E-03
       241 -2.937324E-03  8.943459E-02 -1.106520E-03
       242 -2.933938E-03  8.935488E-02 -7.128477E-03
       243 -2.930996E-03  1.014879E-01 -1.252201E-03
       244 -2.927764E-03  1.135962E-01  4.636523E-03
       245 -2.921982E-03  1.134998E-01 -1.388980E-03
       246 -2.927963E-03  1.134702E-01 -1.381954E-03
       247 -2.933925E-03  1.135002E-01 -1.392114E-03
       248 -2.928180E-03  1.134158E-01 -7.408624E-03
       249 -2.924664E-03  1.255672E-01 -1.537211E-03
       250 -2.920938E-03  1.377088E-01  4.336720E-03
       251 -2.907793E-03  1.375477E-01 -1.661196E-03
       252 -2.921151E-03  1.374789E-01 -1.633889E-03
       253 -2.934495E-03  1.375481E-01 -1.664766E-03
       254 -2.921374E-03  1.374551E-01 -7.689648E-03
       255 -2.917458E-03  1.496618E-01 -1.865808E-03
       256 -2.913414E-03  1.619051E-01  4.228233E-03
       257 -2.883542E-03  1.615228E-01 -1.962604E-03
       258 -2.913636E-03  1.614153E-01 -1.943648E-03
       259 -2.943725E-03  1.615231E-01 -1.966428E-03
       260 -2.913865E-03  1.614590E-01 -8.039897E-03
       261 -2.909731E-03  1.739359E-01 -2.135382E-03

 stresses (elem, integ.pnt.,sxx,syy,szz,sxy,sxz,syz) for set EALL and time  0.2500000E+00

         1   1 -3.539355E+01  3.378741E+02  1.960280E+03  1.060007E+02 -4.320241E+01  3.230429E+02
         1   2 -8.404555E+01 -1.344524E+02  1.846698E+03 -1.144989E+02 -3.135192E+00  2.982174E+01
         1   3  7.652121E+01  6.503783E+01  5.043358E+02  5.504258E+00  1.903053E+01  2.223915E+02
         1   4  1.062254E+02 -2.104784E+02  4.453483E+02  1.428632E+02  1.196656E+01  1.672056E+02
         1   5 -1.833071E+01 -8.688642E+01  1.262599E+03 -4.172688E+01 -2.951334E+01  1.445538E+02
         1   6  1.135922E+01 -5.351418E+00  1.262761E+03 -4.546459E+01 -1.743409E+01  1.946946E+02
         1   7 -6.132212E+00 -6.106251E+01  3.595768E+02 -2.354888E+01  2.778166E+01  4.510780E+02
         1   8  6.465414E+01 -8.909571E+00  3.834148E+02  1.978762E+01  1.301156E+01  3.642176E+02
         2   1 -8.406363E+01 -1.344577E+02  1.846683E+03  1.145149E+02  3.126902E+00  2.982839E+01
         2   2 -3.540219E+01  3.379238E+02  1.960274E+03 -1.060152E+02  4.320624E+01  3.230897E+02
         2   3  1.062545E+02 -2.104684E+02  4.453533E+02 -1.428213E+02 -1.200130E+01  1.672078E+02
         2   4  7.651381E+01  6.507445E+01  5.043396E+02 -5.513434E+00 -1.905048E+01  2.224132E+02
         2   5  1.135558E+01 -5.354471E+00  1.262727E+03  4.547148E+01  1.739750E+01  1.946878E+02
         2   6 -1.832999E+01 -8.689212E+01  1.262488E+03  4.173322E+01  2.950112E+01  1.445573E+02
         2   7  6.465601E+01 -8.907077E+00  3.833775E+02 -1.977484E+01 -1.306111E+01  3.642224E+02
         2   8 -6.142688E+00 -6.105749E+01  3.594509E+02  2.355084E+01 -2.780005E+01  4.511163E+02
         3   1 -1.323884E+02 -2.317729E+02 -5.243402E+02  1.102136E+01 -2.217708E+01  1.281059E+02
         3   2 -2.266652E+01 -1.790468E+02 -4.949573E+02  7.924608E+01 -3.916257E+00  1.097171E+02
         3   3  1.093730E+02 -2.844793E+02 -1.807955E+03  1.735173E+02  2.355450E+00 -1.255482E+02
         3   4  2.379998E+01 -3.459421E+02 -1.897748E+03 -4.024927E+02  1.589323E+00 -2.758475E+02
         3   5 -6.536907E+00 -1.107403E+02 -2.499129E+02 -3.488294E+01 -1.258757E+01  5.174309E+02
         3   6 -2.937330E+01 -2.920986E+02 -3.277732E+02 -1.097182E+01  2.107020E+00  4.266416E+02
         3   7 -3.096827E+01 -1.334697E+02 -1.321149E+03 -2.224330E+01  4.842103E+01  3.514797E+02
         3   8 -1.365501E+02 -4.557965E+02 -1.453660E+03 -1.688627E+02  3.314331E+01  3.403746E+02
         4   1 -2.263277E+01 -1.790721E+02 -4.949619E+02 -7.923394E+01  3.896404E+00  1.097217E+02
         4   2 -1.323598E+02 -2.317405E+02 -5.243207E+02 -1.098174E+01  2.216519E+01  1.281274E+02
         4   3  2.371554E+01 -3.460030E+02 -1.897805E+03  4.025480E+02 -1.560149E+00 -2.758254E+02
         4   4  1.094006E+02 -2.843930E+02 -1.807931E+03 -1.734515E+02 -2.333119E+00 -1.254828E+02
         4   5 -2.936261E+01 -2.920877E+02 -3.278036E+02  1.100977E+01 -2.190895E+00  4.266489E+02
         4   6 -6.500577E+00 -1.106484E+02 -2.499848E+02  3.492366E+01  1.254874E+01  5.174723E+02
         4   7 -1.366249E+02 -4.558098E+02 -1.453717E+03  1.689193E+02 -3.333039E+01  3.403774E+02
         4   8 -3.096647E+01 -1.333466E+02 -1.321186E+03  2.227435E+01 -4.852632E+01  3.514868E+02
         5   1  3.906121E+01  4.739021E+01  6.773126E+02  1.359690E+01 -4.595693E+00  2.054959E+02
         5   2  3.115792E+00  2.914506E+01  6.766009E+02  5.839287E+01 -2.151492E+01  1.242291E+02
         5   3 -2.048029E+01  1.405666E+02  1.149944E+02 -1.230286E+01  6.510791E+00  4.426523E+02
         5   4 -4.496236E+01  3.814814E+01  9.117749E+01 -1.662351E+01  3.394535E+00  4.004201E+02
         5   5 -1.904068E+01 -3.465385E+00  1.279365E+02 -8.213447E+00 -1.070062E+01  5.331096E+01
         5   6 -9.771857E+00  4.301512E+01  1.238917E+02 -1.194209E+01 -5.791002E+00  8.325389E+01
         5   7  2.388430E+00  8.957442E+01  7.740374E+01  6.151990E+00 -8.023555E+00  1.490608E+02
         5   8  1.676586E+01  1.290430E+02  8.173978E+01  2.066791E+00 -1.356880E+00  1.179683E+02
         6   1  3.119524E+00  2.915021E+01  6.765481E+02 -5.839919E+01  2.147426E+01  1.242291E+02
         6   2  3.906407E+01  4.739416E+01  6.771016E+02 -1.359626E+01  4.577665E+00  2.055002E+02
         6   3 -4.496712E+01  3.815722E+01  9.112931E+01  1.662002E+01 -3.461097E+00  4.004187E+02
         6   4 -2.048197E+01  1.405922E+02  1.147976E+02  1.230427E+01 -6.539916E+00  4.426577E+02
         6   5 -9.770059E+00  4.300826E+01  1.238168E+02  1.193373E+01  5.763116E+00  8.325145E+01
         6   6 -1.904202E+01 -3.473371E+00  1.276543E+02  8.209967E+00  1.068792E+01  5.329691E+01
         6   7  1.676442E+01  1.290335E+02  8.166551E+01 -2.092071E+00  1.337198E+00  1.179661E+02
         6   8  2.384956E+00  8.955697E+01  7.711367E+01 -6.162664E+00  8.018867E+00  1.490527E+02
         7   1  7.344516E+00  2.691396E+02 -2.945755E+02 -2.185960E+00  1.083472E+01  4.003696E+02
         7   2  7.124018E+01  3.150342E+02 -2.362741E+02 -2.670010E+01  9.056547E+00  3.914787E+02
         7   3  4.344109E+01  4.505179E+02 -5.535888E+02  2.852348E+01  1.291160E+01  4.941661E+01
         7   4  6.041310E+01  3.639847E+02 -5.512035E+02  5.993384E+00  3.070421E+01  4.680536E+01
         7   5 -1.691673E+01  1.658934E+02 -9.199054E+01  1.012357E+01 -1.690001E+00  1.395595E+02
         7   6 -1.766392E+01  1.469296E+02 -8.454268E+01  6.158192E+00 -1.089131E+00  1.014198E+02
         7   7 -1.512098E+01  2.204054E+02 -1.474672E+02  7.375010E+00 -1.411184E+01  3.058968E+01
         7   8 -4.754914E+00  2.110428E+02 -1.099265E+02  3.205823E+00 -2.277459E+00  2.048825E+01
         8   1  7.124590E+01  3.150350E+02 -2.363221E+02  2.665679E+01 -9.134902E+00  3.914775E+02
         8   2  7.327211E+00  2.691100E+02 -2.948063E+02  2.160198E+00 -1.086590E+01  4.003799E+02
         8   3  6.041810E+01  3.639874E+02 -5.512522E+02 -6.048758E+00 -3.079566E+01  4.680167E+01
         8   4  4.341408E+01  4.504866E+02 -5.538458E+02 -2.858890E+01 -1.293311E+01  4.941445E+01
         8   5 -1.766445E+01  1.469305E+02 -8.461322E+01 -6.195180E+00  1.076496E+00  1.014175E+02
         8   6 -1.692537E+01  1.658620E+02 -9.229630E+01 -1.014274E+01  1.685892E+00  1.395513E+02
         8   7 -4.760093E+00  2.110338E+02 -1.099975E+02 -3.251653E+00  2.282365E+00  2.048669E+01
         8   8 -1.513279E+01  2.203365E+02 -1.477888E+02 -7.414338E+00  1.411808E+01  3.058129E+01
         9   1  3.857696E+00  1.652924E+01  4.524103E+01  8.620303E+00  2.511652E+00  2.790926E+01
         9   2 -1.016777E+01 -2.834300E+01  2.661328E+01  5.294994E-01  9.155223E-01  1.520999E+00
         9   3  7.142005E+00  3.593455E+01  1.341722E+01  3.649135E-01  6.934582E-01  4.942562E+01
         9   4 -2.922007E+00  1.350694E+01  8.868309E+00  5.173379E+00 -7.754037E-01  5.413906E+01
         9   5 -2.857479E+00 -3.133698E+00 -1.097012E+01 -3.607124E+00 -6.461000E-01 -3.907656E+00
         9   6  2.105749E+00  1.076552E+01 -1.170388E+01 -3.709999E+00  5.862702E-01  8.994433E+00
         9   7  2.787733E+00  8.983315E+00  5.953236E+00  1.015385E+00  3.933147E+00  2.088888E+00
         9   8  6.054403E+00  1.981859E+01  1.415404E+00  8.322809E-01  2.110056E+00 -1.954145E+00
        10   1 -1.016693E+01 -2.834722E+01  2.653535E+01 -5.317520E-01 -9.213468E-01  1.520021E+00
        10   2  3.860918E+00  1.653749E+01  4.494791E+01 -8.619056E+00 -2.512702E+00  2.790130E+01
        10   3 -2.923311E+00  1.349733E+01  8.786662E+00 -5.190626E+00  7.773595E-01  5.413672E+01
        10   4  7.147201E+00  3.592823E+01  1.311939E+01 -3.680058E-01 -6.930524E-01  4.940869E+01
        10   5  2.105612E+00  1.076459E+01 -1.177635E+01  3.708192E+00 -5.772439E-01  8.992229E+00
        10   6 -2.859016E+00 -3.136209E+00 -1.125034E+01  3.606799E+00  6.503160E-01 -3.916441E+00
        10   7  6.053849E+00  1.981577E+01  1.341054E+00 -8.382927E-01 -2.099410E+00 -1.955523E+00
        10   8  2.786398E+00  8.975670E+00  5.671470E+00 -1.017406E+00 -3.929182E+00  2.079170E+00
        11   1  1.125940E+01  8.108158E+01  1.670644E+00 -8.566547E+00  5.773061E-01  2.818396E+01
        11   2  2.172840E+00  7.187551E+01  2.806871E-02  2.743282E+00 -3.200289E+00  4.010409E+01
        11   3  3.607553E+00  7.251166E+01 -4.504151E+01 -1.357466E+01  1.203359E+01  3.432305E+01
        11   4 -5.116363E+00  8.350752E+01 -5.378585E+01 -3.429198E+00 -3.930514E+00  4.004015E+01
        11   5  7.292479E-01  8.272500E+00  8.602562E+00  3.100971E+00  1.161821E+00  5.229950E+00
        11   6 -2.472179E+00  1.849023E+00  6.725917E-01  2.258929E+00  1.076962E+00 -3.625490E+00
        11   7 -7.755702E-01  1.533881E+01  5.773764E+00  1.444077E+00 -3.074107E+00  1.143096E+00
        11   8  4.446526E-01  1.492963E+01  1.027694E+01  7.777025E-01 -1.308451E+00 -1.850198E+00
        12   1  2.166774E+00  7.187474E+01 -5.245404E-02 -2.760599E+00  3.207036E+00  4.010213E+01
        12   2  1.126262E+01  8.106698E+01  1.373237E+00  8.562241E+00 -5.756712E-01  2.816632E+01
        12   3 -5.133332E+00  8.349134E+01 -5.387438E+01  3.407345E+00  3.945338E+00  4.003945E+01
        12   4  3.607812E+00  7.245770E+01 -4.534657E+01  1.356157E+01 -1.203065E+01  3.431317E+01
        12   5 -2.471616E+00  1.847457E+00  5.983699E-01 -2.266482E+00 -1.062267E+00 -3.626400E+00
        12   6  7.287112E-01  8.259636E+00  8.321007E+00 -3.104158E+00 -1.155561E+00  5.220255E+00
        12   7  4.460528E-01  1.492537E+01  1.020033E+01 -7.839262E-01  1.332019E+00 -1.851471E+00
        12   8 -7.746364E-01  1.531718E+01  5.488768E+00 -1.447916E+00  3.083159E+00  1.135127E+00
        13   1  1.527954E+00  9.265575E-01 -3.215823E+00  1.926850E+00  1.394905E+00  1.984387E+00
        13   2 -4.412883E-02 -2.628363E+00 -3.894590E+00  4.051623E+00  5.850607E-01 -7.038181E+00
        13   3 -3.631078E+00 -2.271928E+00  1.019369E+00 -5.763526E-02 -2.016087E+00 -2.888040E+00
        13   4 -3.752206E+00 -8.776276E+00  3.097121E-01 -1.621346E+00 -3.755996E-01  5.407607E-01
        13   5  3.266445E-01  1.009298E+00 -3.171860E-01 -9.245137E-01 -9.193353E-01 -3.049661E+00
        13   6  5.745917E-01  1.836609E+00 -6.831335E-01  9.355138E-02 -1.733308E-01  4.355413E+00
        13   7 -1.890619E-01 -3.464338E-01  9.662092E-01  2.283821E-01  6.026351E-01 -5.000105E-01
        13   8  1.043336E+00  1.354644E+00  1.667198E+00  1.557084E-01  2.037205E-01 -2.564315E+00
        14   1 -4.394466E-02 -2.627887E+00 -3.963952E+00 -4.053109E+00 -5.700376E-01 -7.039702E+00
        14   2  1.528624E+00  9.257027E-01 -3.476032E+00 -1.927757E+00 -1.389992E+00  1.978901E+00
        14   3 -3.752079E+00 -8.776260E+00  2.402211E-01  1.620251E+00  3.901765E-01  5.387369E-01
        14   4 -3.630941E+00 -2.274476E+00  7.591092E-01  5.658356E-02  2.021451E+00 -2.894666E+00
        14   5  5.747071E-01  1.836352E+00 -7.453114E-01 -9.331713E-02  1.910062E-01  4.354026E+00
        14   6  3.266589E-01  1.008617E+00 -5.498480E-01  9.247210E-01  9.268278E-01 -3.054140E+00
        14   7  1.042242E+00  1.353512E+00  1.604216E+00 -1.562364E-01 -1.897075E-01 -2.565275E+00
        14   8 -1.895638E-01 -3.484627E-01  7.328390E-01 -2.287137E-01 -5.974844E-01 -5.023672E-01
        15   1 -2.402522E+00 -1.555331E+00  2.324714E+00 -7.866855E-01 -1.462752E+00  2.046337E+00
        15   2  4.752035E+00  8.283993E+00  6.960427E+00 -2.635277E+00  5.668648E-01  1.005418E+01
        15   3  1.237179E+00  6.820528E+00  5.799277E+00  1.609960E+00  4.231514E-01 -3.648338E+00
        15   4  2.145147E+00  6.022865E+00  1.053438E+00  1.335843E-01  2.594637E+00 -2.148491E+00
        15   5 -1.275984E+00 -2.061317E+00  5.279842E-01  4.146587E-01  1.244398E+00  1.781695E-01
        15   6 -7.087481E-01 -2.266817E+00  8.036122E-01  2.289177E-01  4.019898E-01 -5.795178E+00
        15   7 -2.724536E-01 -1.094415E+00  3.475195E+00  2.580447E-01 -1.188651E+00  3.604479E-03
        15   8  1.471124E-01 -1.274294E+00  4.257280E+00  1.258611E-01 -6.134518E-01 -2.160007E+00
        16   1  4.752902E+00  8.281426E+00  6.890580E+00  2.633498E+00 -5.521891E-01  1.005211E+01
        16   2 -2.404375E+00 -1.566201E+00  2.062917E+00  7.846809E-01  1.468735E+00  2.038885E+00
        16   3  2.146277E+00  6.020760E+00  9.838893E-01 -1.331941E-01 -2.580317E+00 -2.150222E+00
        16   4  1.234962E+00  6.811372E+00  5.539813E+00 -1.610983E+00 -4.166703E-01 -3.654840E+00
        16   5 -7.081651E-01 -2.267116E+00  7.413932E-01 -2.294460E-01 -3.886442E-01 -5.796485E+00
        16   6 -1.275007E+00 -2.063388E+00  2.959055E-01 -4.136025E-01 -1.239152E+00  1.747936E-01
        16   7  1.491261E-01 -1.274573E+00  4.195198E+00 -1.249797E-01  6.267168E-01 -2.161508E+00
        16   8 -2.715648E-01 -1.098161E+00  3.243275E+00 -2.576813E-01  1.195040E+00 -7.091345E-04
        17   1 -1.107709E+00 -1.587751E+00 -1.230938E-01 -7.676348E-01  1.173000E+00  2.647506E+00
        17   2 -3.405296E-01 -4.757865E-01  7.866435E-01 -1.320839E+00  2.399083E-01 -5.586309E+00
        17   3  6.764166E-01 -1.067108E+00  1.568692E+00 -6.571638E-02 -1.000485E+00 -5.513896E-01
        17   4  7.301065E-01  1.095037E+00  1.167243E+00  3.882599E-01 -7.822119E-01  1.909386E+00
        17   5  1.120010E+00  8.842169E-01  1.470438E+00  5.339301E+00 -1.630641E+00 -4.074821E+00
        17   6 -1.726447E+00 -5.643475E+00 -1.119836E+00  1.513912E+00 -2.093573E-01  9.703445E+00
        17   7  1.857631E+00  4.054340E+00  1.430457E+00 -1.922069E-01  2.006408E+00  1.029751E-01
        17   8 -2.915333E+00 -6.897155E+00  1.932125E+00 -1.866192E-01  1.598193E+00 -4.055113E+00
        18   1 -3.402456E-01 -4.758965E-01  7.300144E-01  1.320753E+00 -2.211538E-01 -5.587444E+00
        18   2 -1.107739E+00 -1.587311E+00 -3.355269E-01  7.678320E-01 -1.165505E+00  2.644520E+00
        18   3  7.299546E-01  1.094414E+00  1.110056E+00 -3.889413E-01  7.970344E-01  1.908654E+00
        18   4  6.769309E-01 -1.067536E+00  1.355455E+00  6.550479E-02  1.006241E+00 -5.529698E-01
        18   5 -1.726299E+00 -5.643758E+00 -1.168688E+00 -1.513781E+00  2.298590E-01  9.702383E+00
        18   6  1.119785E+00  8.837710E-01  1.287002E+00 -5.339109E+00  1.639221E+00 -4.077316E+00
        18   7 -2.915488E+00 -6.897699E+00  1.883072E+00  1.858325E-01 -1.582659E+00 -4.055549E+00
        18   8  1.858120E+00  4.053765E+00  1.247271E+00  1.918522E-01 -2.001174E+00  1.027262E-01
        19   1  1.588785E+00  1.821383E+00  3.408523E+00  1.663891E-01 -1.243755E+00 -2.837907E+00
        19   2 -9.729530E-01 -9.845311E-01 -5.599164E-02  7.045323E-01 -9.398428E-01  2.943945E+00
        19   3 -3.272936E-01 -1.400264E+00  1.309930E+00 -3.534541E-01  1.458725E+00  1.622587E-01
        19   4 -5.486290E-01 -8.542766E-01  2.054348E+00 -3.181832E-03  2.273668E-01  2.790611E+00
        19   5  2.981469E-01 -3.911820E-01  2.768151E-01 -1.879662E+00  1.168358E+00  1.809180E+00
        19   6  6.813058E-01  2.413440E+00  4.639444E+00 -1.171568E+00  6.721792E-01 -5.673978E+00
        19   7  3.315085E-01 -7.494441E-01  2.158865E+00 -1.087596E+00 -1.147698E+00  7.285267E-01
        19   8 -3.856427E-01  1.503811E+00 -5.135228E-01 -6.234743E-01 -6.989690E-01 -1.725332E+00
        20   1 -9.730061E-01 -9.846711E-01 -1.126797E-01 -7.055154E-01  9.529816E-01  2.943001E+00
        20   2  1.588822E+00  1.819454E+00  3.195583E+00 -1.670234E-01  1.249057E+00 -2.840167E+00
        20   3 -5.520582E-01 -8.560800E-01  1.997215E+00  2.823489E-03 -2.164278E-01  2.789470E+00
        20   4 -3.317493E-01 -1.405326E+00  1.097516E+00  3.509939E-01 -1.454594E+00  1.592864E-01
        20   5  6.817433E-01  2.413492E+00  4.590633E+00  1.169924E+00 -6.573214E-01 -5.674283E+00
        20   6  2.981357E-01 -3.931245E-01  9.246422E-02  1.878752E+00 -1.162471E+00  1.808456E+00
        20   7 -3.881780E-01  1.502516E+00 -5.638697E-01  6.229780E-01  7.153001E-01 -1.725956E+00
        20   8  3.260711E-01 -7.543247E-01  1.970034E+00  1.084996E+00  1.156959E+00  7.266157E-01
        21   1 -3.468856E+00 -4.244407E+00 -9.646232E-01 -6.085145E+00  2.234884E+00  5.092034E+00