
 displacements (vx,vy,vz) for set NALL and time  0.1000000E+01

         1  0.000000E+00  0.000000E+00  0.000000E+00
         2 -4.411388E-03  0.000000E+00  0.000000E+00
         3 -4.411388E-03 -4.411388E-03  0.000000E+00
         4 -2.259122E-17 -4.411388E-03  0.000000E+00
         5  5.083572E-10  5.084299E-10  8.549874E-02
         6 -4.411389E-03  5.084299E-10  8.549874E-02
         7 -4.411389E-03 -4.411389E-03  8.549874E-02
         8  5.083571E-10 -4.411389E-03  8.549874E-02
         9 -1.102847E-03  9.238512E-15  0.000000E+00
        10 -2.205694E-03  3.582128E-14  0.000000E+00
        11 -3.308541E-03  9.234874E-15  0.000000E+00
        12 -4.411388E-03 -1.102847E-03  0.000000E+00
        13 -4.411388E-03 -2.205694E-03  0.000000E+00
        14 -4.411388E-03 -3.308541E-03  0.000000E+00
        15 -3.308541E-03 -4.411388E-03  0.000000E+00
        16 -2.205694E-03 -4.411388E-03  0.000000E+00
        17 -1.102847E-03 -4.411388E-03  0.000000E+00
        18  9.211668E-15 -3.308541E-03  0.000000E+00
        19  3.579736E-14 -2.205694E-03  0.000000E+00
        20  9.223642E-15 -1.102847E-03  0.000000E+00
        21 -1.102847E-03  5.133909E-10  8.549874E-02
        22 -2.205694E-03  4.850408E-10  8.549874E-02
        23 -3.308541E-03  5.133909E-10  8.549874E-02
        24 -4.411389E-03 -1.102847E-03  8.549874E-02
        25 -4.411389E-03 -2.205694E-03  8.549874E-02
        26 -4.411389E-03 -3.308541E-03  8.549874E-02
        27 -3.308541E-03 -4.411389E-03  8.549874E-02
        28 -2.205694E-03 -4.411389E-03  8.549874E-02
        29 -1.102847E-03 -4.411389E-03  8.549874E-02
        30  5.133751E-10 -3.308541E-03  8.549874E-02
        31  4.850698E-10 -2.205694E-03  8.549874E-02
        32  5.133751E-10 -1.102847E-03  8.549874E-02
        33 -4.411388E-03 -5.079563E-14  5.343671E-03
        34 -4.411388E-03 -1.563601E-13  1.068734E-02
        35 -4.411388E-03 -3.128102E-14  1.603101E-02
        36 -4.411388E-03  8.886309E-14  2.137468E-02
        37 -4.411388E-03  9.208461E-14  2.671835E-02
        38 -4.411388E-03 -7.773465E-13  3.206203E-02
        39 -4.411388E-03 -4.753940E-13  3.740570E-02
        40 -4.411388E-03  4.892420E-13  4.274937E-02
        41 -4.411388E-03  3.120872E-12  4.809304E-02
        42 -4.411388E-03 -6.084440E-12  5.343671E-02
        43 -4.411388E-03 -8.131655E-12  5.878038E-02
        44 -4.411388E-03 -9.012947E-13  6.412405E-02
        45 -4.411388E-03  4.924266E-11  6.946772E-02
        46 -4.411388E-03 -4.383976E-11  7.481139E-02
        47 -4.411388E-03 -1.194161E-10  8.015506E-02
        48 -1.193912E-10 -1.194161E-10  8.015506E-02
        49 -4.385668E-11 -4.383973E-11  7.481139E-02
        50  4.924302E-11  4.924267E-11  6.946772E-02
        51 -8.984899E-13 -9.012632E-13  6.412405E-02
        52 -8.136043E-12 -8.131636E-12  5.878038E-02
        53 -6.082796E-12 -6.084427E-12  5.343671E-02
        54  3.120592E-12  3.120867E-12  4.809304E-02
        55  4.894606E-13  4.892119E-13  4.274937E-02
        56 -4.760002E-13 -4.754046E-13  3.740570E-02
        57 -7.774656E-13 -7.773350E-13  3.206203E-02
        58  9.195362E-14  9.210112E-14  2.671835E-02
        59  8.875867E-14  8.886791E-14  2.137468E-02
        60 -3.139777E-14 -3.126761E-14  1.603101E-02
        61 -1.563948E-13 -1.563557E-13  1.068734E-02
        62 -5.080531E-14 -5.078790E-14  5.343671E-03
        63 -4.411388E-03 -4.411388E-03  5.343671E-03
        64 -4.411388E-03 -4.411388E-03  1.068734E-02
        65 -4.411388E-03 -4.411388E-03  1.603101E-02
        66 -4.411388E-03 -4.411388E-03  2.137468E-02
        67 -4.411388E-03 -4.411388E-03  2.671835E-02
        68 -4.411388E-03 -4.411388E-03  3.206203E-02
        69 -4.411388E-03 -4.411388E-03  3.740570E-02
        70 -4.411388E-03 -4.411388E-03  4.274937E-02
        71 -4.411388E-03 -4.411388E-03  4.809304E-02
        72 -4.411388E-03 -4.411388E-03  5.343671E-02
        73 -4.411388E-03 -4.411388E-03  5.878038E-02
        74 -4.411388E-03 -4.411388E-03  6.412405E-02
        75 -4.411388E-03 -4.411388E-03  6.946772E-02
        76 -4.411388E-03 -4.411388E-03  7.481139E-02
        77 -4.411388E-03 -4.411388E-03  8.015506E-02
        78 -5.082202E-14 -4.411388E-03  5.343671E-03
        79 -1.564044E-13 -4.411388E-03  1.068734E-02
        80 -3.139400E-14 -4.411388E-03  1.603101E-02
        81  8.876327E-14 -4.411388E-03  2.137468E-02
        82  9.195790E-14 -4.411388E-03  2.671835E-02
        83 -7.774585E-13 -4.411388E-03  3.206203E-02
        84 -4.760183E-13 -4.411388E-03  3.740570E-02
        85  4.894147E-13 -4.411388E-03  4.274937E-02
        86  3.120609E-12 -4.411388E-03  4.809304E-02
        87 -6.082785E-12 -4.411388E-03  5.343671E-02
        88 -8.136010E-12 -4.411388E-03  5.878038E-02
        89 -8.984665E-13 -4.411388E-03  6.412405E-02
        90  4.924305E-11 -4.411388E-03  6.946772E-02
        91 -4.385666E-11 -4.411388E-03  7.481139E-02
        92 -1.193912E-10 -4.411388E-03  8.015506E-02
        93 -2.205694E-03 -1.102847E-03  0.000000E+00
        94 -1.102847E-03 -2.205694E-03  0.000000E+00
        95 -2.205694E-03 -2.205694E-03  0.000000E+00
        96 -3.308541E-03 -2.205694E-03  0.000000E+00
        97 -2.205694E-03 -3.308541E-03  0.000000E+00
        98 -2.205694E-03 -1.102847E-03  8.549873E-02
        99 -1.102847E-03 -2.205694E-03  8.549873E-02
       100 -2.205694E-03 -2.205694E-03  8.549873E-02
       101 -3.308541E-03 -2.205694E-03  8.549873E-02
       102 -2.205694E-03 -3.308541E-03  8.549873E-02
       103 -2.205694E-03 -4.779657E-14  5.343671E-03
       104 -1.102847E-03 -1.405484E-13  1.068734E-02
       105 -2.205694E-03 -1.469054E-13  1.068734E-02
       106 -3.308541E-03 -1.405503E-13  1.068734E-02
       107 -2.205694E-03 -9.872688E-14  1.603101E-02
       108 -1.102847E-03  1.481260E-13  2.137468E-02
       109 -2.205694E-03  2.456758E-13  2.137468E-02
       110 -3.308541E-03  1.481245E-13  2.137468E-02
       111 -2.205694E-03  1.220813E-13  2.671835E-02
       112 -1.102847E-03 -6.052205E-13  3.206203E-02
       113 -2.205694E-03 -4.925237E-13  3.206203E-02
       114 -3.308541E-03 -6.052234E-13  3.206203E-02
       115 -2.205694E-03 -1.012726E-12  3.740570E-02
       116 -1.102847E-03  1.218982E-12  4.274937E-02
       117 -2.205694E-03  2.014649E-12  4.274937E-02
       118 -3.308541E-03  1.218994E-12  4.274937E-02
       119 -2.205694E-03  2.677776E-12  4.809304E-02
       120 -1.102847E-03 -3.994378E-12  5.343671E-02
       121 -2.205694E-03 -1.781615E-12  5.343671E-02
       122 -3.308541E-03 -3.994379E-12  5.343671E-02
       123 -2.205694E-03 -1.253419E-11  5.878038E-02
       124 -1.102847E-03  7.632176E-12  6.412405E-02
       125 -2.205694E-03  1.528359E-11  6.412405E-02
       126 -3.308541E-03  7.632153E-12  6.412405E-02
       127 -2.205694E-03  3.871312E-11  6.946772E-02
       128 -1.102847E-03 -9.058069E-12  7.481139E-02
       129 -2.205694E-03  2.988196E-11  7.481139E-02
       130 -3.308541E-03 -9.058087E-12  7.481139E-02
       131 -2.205694E-03 -2.118489E-10  8.015506E-02
       132 -4.411388E-03 -2.205694E-03  5.343671E-03
       133 -4.411388E-03 -1.102847E-03  1.068734E-02
       134 -4.411388E-03 -2.205694E-03  1.068734E-02
       135 -4.411388E-03 -3.308541E-03  1.068734E-02
       136 -4.411388E-03 -2.205694E-03  1.603101E-02
       137 -4.411388E-03 -1.102847E-03  2.137468E-02
       138 -4.411388E-03 -2.205694E-03  2.137468E-02
       139 -4.411388E-03 -3.308541E-03  2.137468E-02
       140 -4.411388E-03 -2.205694E-03  2.671835E-02
       141 -4.411388E-03 -1.102847E-03  3.206203E-02
       142 -4.411388E-03 -2.205694E-03  3.206203E-02
       143 -4.411388E-03 -3.308541E-03  3.206203E-02
       144 -4.411388E-03 -2.205694E-03  3.740570E-02
       145 -4.411388E-03 -1.102847E-03  4.274937E-02
       146 -4.411388E-03 -2.205694E-03  4.274937E-02
       147 -4.411388E-03 -3.308541E-03  4.274937E-02
       148 -4.411388E-03 -2.205694E-03  4.809304E-02
       149 -4.411388E-03 -1.102847E-03  5.343671E-02
       150 -4.411388E-03 -2.205694E-03  5.343671E-02
       151 -4.411388E-03 -3.308541E-03  5.343671E-02
       152 -4.411388E-03 -2.205694E-03  5.878038E-02
       153 -4.411388E-03 -1.102847E-03  6.412405E-02
       154 -4.411388E-03 -2.205694E-03  6.412405E-02
       155 -4.411388E-03 -3.308541E-03  6.412405E-02
       156 -4.411388E-03 -2.205694E-03  6.946772E-02
       157 -4.411388E-03 -1.102847E-03  7.481139E-02
       158 -4.411388E-03 -2.205694E-03  7.481139E-02
       159 -4.411388E-03 -3.308541E-03  7.481139E-02
       160 -4.411388E-03 -2.205694E-03  8.015506E-02
       161 -2.205694E-03 -4.411388E-03  5.343671E-03
       162 -3.308541E-03 -4.411388E-03  1.068734E-02
       163 -2.205694E-03 -4.411388E-03  1.068734E-02
       164 -1.102847E-03 -4.411388E-03  1.068734E-02
       165 -2.205694E-03 -4.411388E-03  1.603101E-02
       166 -3.308541E-03 -4.411388E-03  2.137468E-02
       167 -2.205694E-03 -4.411388E-03  2.137468E-02
       168 -1.102847E-03 -4.411388E-03  2.137468E-02
       169 -2.205694E-03 -4.411388E-03  2.671835E-02
       170 -3.308541E-03 -4.411388E-03  3.206203E-02
       171 -2.205694E-03 -4.411388E-03  3.206203E-02
       172 -1.102847E-03 -4.411388E-03  3.206203E-02
       173 -2.205694E-03 -4.411388E-03  3.740570E-02
       174 -3.308541E-03 -4.411388E-03  4.274937E-02
       175 -2.205694E-03 -4.411388E-03  4.274937E-02
       176 -1.102847E-03 -4.411388E-03  4.274937E-02
       177 -2.205694E-03 -4.411388E-03  4.809304E-02
       178 -3.308541E-03 -4.411388E-03  5.343671E-02
       179 -2.205694E-03 -4.411388E-03  5.343671E-02
       180 -1.102847E-03 -4.411388E-03  5.343671E-02
       181 -2.205694E-03 -4.411388E-03  5.878038E-02
       182 -3.308541E-03 -4.411388E-03  6.412405E-02
       183 -2.205694E-03 -4.411388E-03  6.412405E-02
       184 -1.102847E-03 -4.411388E-03  6.412405E-02
       185 -2.205694E-03 -4.411388E-03  6.946772E-02
       186 -3.308541E-03 -4.411388E-03  7.481139E-02
       187 -2.205694E-03 -4.411388E-03  7.481139E-02
       188 -1.102847E-03 -4.411388E-03  7.481139E-02
       189 -2.205694E-03 -4.411388E-03  8.015506E-02
       190 -4.781996E-14 -2.205694E-03  5.343671E-03
       191 -1.406161E-13 -3.308541E-03  1.068734E-02
       192 -1.469942E-13 -2.205694E-03  1.068734E-02
       193 -1.406134E-13 -1.102847E-03  1.068734E-02
       194 -9.880200E-14 -2.205694E-03  1.603101E-02
       195  1.479811E-13 -3.308541E-03  2.137468E-02
       196  2.454902E-13 -2.205694E-03  2.137468E-02
       197  1.479780E-13 -1.102847E-03  2.137468E-02
       198  1.219516E-13 -2.205694E-03  2.671835E-02
       199 -6.055630E-13 -3.308541E-03  3.206203E-02
       200 -4.930635E-13 -2.205694E-03  3.206203E-02
       201 -6.055614E-13 -1.102847E-03  3.206203E-02
       202 -1.012892E-12 -2.205694E-03  3.740570E-02
       203  1.218596E-12 -3.308541E-03  4.274937E-02
       204  2.013557E-12 -2.205694E-03  4.274937E-02
       205  1.218610E-12 -1.102847E-03  4.274937E-02
       206  2.678232E-12 -2.205694E-03  4.809304E-02
       207 -3.995434E-12 -3.308541E-03  5.343671E-02
       208 -1.784806E-12 -2.205694E-03  5.343671E-02
       209 -3.995441E-12 -1.102847E-03  5.343671E-02
       210 -1.253394E-11 -2.205694E-03  5.878038E-02
       211  7.632148E-12 -3.308541E-03  6.412405E-02
       212  1.527807E-11 -2.205694E-03  6.412405E-02
       213  7.632132E-12 -1.102847E-03  6.412405E-02
       214  3.871883E-11 -2.205694E-03  6.946772E-02
       215 -9.073911E-12 -3.308541E-03  7.481139E-02
       216  2.987566E-11 -2.205694E-03  7.481139E-02
       217 -9.073921E-12 -1.102847E-03  7.481139E-02
       218 -2.118591E-10 -2.205694E-03  8.015506E-02
       219 -2.205694E-03 -2.205694E-03  5.343671E-03
       220 -2.205694E-03 -1.102847E-03  1.068734E-02
       221 -1.102847E-03 -2.205694E-03  1.068734E-02
       222 -2.205694E-03 -2.205694E-03  1.068734E-02
       223 -3.308541E-03 -2.205694E-03  1.068734E-02
       224 -2.205694E-03 -3.308541E-03  1.068734E-02
       225 -2.205694E-03 -2.205694E-03  1.603101E-02
       226 -2.205694E-03 -1.102847E-03  2.137468E-02
       227 -1.102847E-03 -2.205694E-03  2.137468E-02
       228 -2.205694E-03 -2.205694E-03  2.137468E-02
       229 -3.308541E-03 -2.205694E-03  2.137468E-02
       230 -2.205694E-03 -3.308541E-03  2.137468E-02
       231 -2.205694E-03 -2.205694E-03  2.671835E-02
       232 -2.205694E-03 -1.102847E-03  3.206203E-02
       233 -1.102847E-03 -2.205694E-03  3.206203E-02
       234 -2.205694E-03 -2.205694E-03  3.206203E-02
       235 -3.308541E-03 -2.205694E-03  3.206203E-02
       236 -2.205694E-03 -3.308541E-03  3.206203E-02
       237 -2.205694E-03 -2.205694E-03  3.740570E-02
       238 -2.205694E-03 -1.102847E-03  4.274937E-02
       239 -1.102847E-03 -2.205694E-03  4.274937E-02
       240 -2.205694E-03 -2.205694E-03  4.274937E-02
       241 -3.308541E-03 -2.205694E-03  4.274937E-02
       242 -2.205694E-03 -3.308541E-03  4.274937E-02
       243 -2.205694E-03 -2.205694E-03  4.809304E-02
       244 -2.205694E-03 -1.102847E-03  5.343671E-02
       245 -1.102847E-03 -2.205694E-03  5.343671E-02
       246 -2.205694E-03 -2.205694E-03  5.343671E-02
       247 -3.308541E-03 -2.205694E-03  5.343671E-02
       248 -2.205694E-03 -3.308541E-03  5.343671E-02
       249 -2.205694E-03 -2.205694E-03  5.878038E-02
       250 -2.205694E-03 -1.102847E-03  6.412405E-02
       251 -1.102847E-03 -2.205694E-03  6.412405E-02
       252 -2.205694E-03 -2.205694E-03  6.412405E-02
       253 -3.308541E-03 -2.205694E-03  6.412405E-02
       254 -2.205694E-03 -3.308541E-03  6.412405E-02
       255 -2.205694E-03 -2.205694E-03  6.946772E-02
       256 -2.205694E-03 -1.102847E-03  7.481139E-02
       257 -1.102847E-03 -2.205694E-03  7.481139E-02
       258 -2.205694E-03 -2.205694E-03  7.481139E-02
       259 -3.308541E-03 -2.205694E-03  7.481139E-02
       260 -2.205694E-03 -3.308541E-03  7.481139E-02
       261 -2.205694E-03 -2.205694E-03  8.015506E-02

 stresses (elem, integ.pnt.,sxx,syy,szz,sxy,sxz,syz) for set EALL and time  0.1000000E+01

         1   1 -1.911753E-01 -1.911753E-01  9.723030E+02 -9.573242E-10  4.984768E-09  4.985569E-09
         1   2 -1.911753E-01 -1.911753E-01  9.723030E+02 -1.346477E-10  4.345827E-09  7.213257E-11
         1   3 -1.911753E-01 -1.911753E-01  9.723030E+02 -1.344338E-10  7.226466E-11  4.347068E-09
         1   4 -1.911753E-01 -1.911753E-01  9.723030E+02 -8.929700E-10  4.299996E-10  4.306273E-10
         1   5 -1.911753E-01 -1.911753E-01  9.723030E+02  5.042350E-09  3.783582E-09  3.783632E-09
         1   6 -1.911753E-01 -1.911753E-01  9.723030E+02  2.705712E-09 -1.370638E-09  1.940648E-09
         1   7 -1.911753E-01 -1.911753E-01  9.723030E+02  2.705133E-09  1.939449E-09 -1.370984E-09
         1   8 -1.911753E-01 -1.911753E-01  9.723030E+02  2.794986E-09 -2.501825E-09 -2.501760E-09
         2   1 -1.911753E-01 -1.911753E-01  9.723030E+02  1.346075E-10 -4.345914E-09  7.224434E-11
         2   2 -1.911753E-01 -1.911753E-01  9.723030E+02  9.575907E-10 -4.985093E-09  4.985721E-09
         2   3 -1.911753E-01 -1.911753E-01  9.723030E+02  8.930975E-10 -4.298491E-10  4.307202E-10
         2   4 -1.911753E-01 -1.911753E-01  9.723030E+02  1.346003E-10 -7.211759E-11  4.346979E-09
         2   5 -1.911753E-01 -1.911753E-01  9.723030E+02 -2.706127E-09  1.370695E-09  1.940547E-09
         2   6 -1.911753E-01 -1.911753E-01  9.723030E+02 -5.042608E-09 -3.784426E-09  3.784341E-09
         2   7 -1.911753E-01 -1.911753E-01  9.723030E+02 -2.795644E-09  2.502064E-09 -2.501602E-09
         2   8 -1.911753E-01 -1.911753E-01  9.723030E+02 -2.705202E-09 -1.939796E-09 -1.370764E-09
         3   1 -1.911753E-01 -1.911753E-01  9.723030E+02  1.345847E-10  7.239476E-11 -4.346685E-09
         3   2 -1.911753E-01 -1.911753E-01  9.723030E+02  8.929970E-10  4.298952E-10 -4.303445E-10
         3   3 -1.911753E-01 -1.911753E-01  9.723030E+02  9.573715E-10  4.984848E-09 -4.985694E-09
         3   4 -1.911753E-01 -1.911753E-01  9.723030E+02  1.347283E-10  4.346091E-09 -7.247284E-11
         3   5 -1.911753E-01 -1.911753E-01  9.723030E+02 -2.705078E-09  1.939091E-09  1.371095E-09
         3   6 -1.911753E-01 -1.911753E-01  9.723030E+02 -2.795252E-09 -2.501575E-09  2.501578E-09
         3   7 -1.911753E-01 -1.911753E-01  9.723030E+02 -5.042399E-09  3.783643E-09 -3.783880E-09
         3   8 -1.911753E-01 -1.911753E-01  9.723030E+02 -2.706013E-09 -1.370507E-09 -1.940642E-09
         4   1 -1.911753E-01 -1.911753E-01  9.723030E+02 -8.926333E-10 -4.297903E-10 -4.304028E-10
         4   2 -1.911753E-01 -1.911753E-01  9.723030E+02 -1.344753E-10 -7.221794E-11 -4.346959E-09
         4   3 -1.911753E-01 -1.911753E-01  9.723030E+02 -1.345360E-10 -4.345912E-09 -7.218433E-11
         4   4 -1.911753E-01 -1.911753E-01  9.723030E+02 -9.577335E-10 -4.984808E-09 -4.985767E-09
         4   5 -1.911753E-01 -1.911753E-01  9.723030E+02  2.794972E-09  2.501656E-09  2.501611E-09
         4   6 -1.911753E-01 -1.911753E-01  9.723030E+02  2.705252E-09 -1.939247E-09  1.370804E-09
         4   7 -1.911753E-01 -1.911753E-01  9.723030E+02  2.706034E-09  1.371066E-09 -1.940163E-09
         4   8 -1.911753E-01 -1.911753E-01  9.723030E+02  5.042305E-09 -3.784677E-09 -3.784183E-09
         5   1 -1.911753E-01 -1.911753E-01  9.723030E+02 -3.468216E-09 -8.662864E-09 -8.663198E-09
         5   2 -1.911753E-01 -1.911753E-01  9.723030E+02 -2.733023E-09 -1.103260E-08 -2.894333E-09
         5   3 -1.911753E-01 -1.911753E-01  9.723030E+02 -2.732275E-09 -2.891271E-09 -1.103328E-08
         5   4 -1.911753E-01 -1.911753E-01  9.723030E+02 -3.482048E-10 -3.572391E-09 -3.573310E-09
         5   5 -1.911752E-01 -1.911752E-01  9.723030E+02 -7.944789E-09 -1.626754E-08 -1.626967E-08
         5   6 -1.911753E-01 -1.911753E-01  9.723030E+02 -4.724097E-09  1.237530E-08 -4.571085E-09
         5   7 -1.911753E-01 -1.911753E-01  9.723030E+02 -4.723902E-09 -4.574733E-09  1.237671E-08
         5   8 -1.911753E-01 -1.911753E-01  9.723030E+02 -5.985590E-09  1.418325E-08  1.418727E-08
         6   1 -1.911753E-01 -1.911753E-01  9.723030E+02  2.733143E-09  1.103279E-08 -2.894777E-09
         6   2 -1.911753E-01 -1.911753E-01  9.723030E+02  3.467970E-09  8.662211E-09 -8.662997E-09
         6   3 -1.911753E-01 -1.911753E-01  9.723030E+02  3.482966E-10  3.571968E-09 -3.572978E-09
         6   4 -1.911753E-01 -1.911753E-01  9.723030E+02  2.732415E-09  2.890479E-09 -1.103320E-08
         6   5 -1.911753E-01 -1.911753E-01  9.723030E+02  4.723978E-09 -1.237448E-08 -4.570027E-09
         6   6 -1.911752E-01 -1.911752E-01  9.723030E+02  7.945004E-09  1.626664E-08 -1.626949E-08
         6   7 -1.911753E-01 -1.911753E-01  9.723030E+02  5.985853E-09 -1.418331E-08  1.418652E-08
         6   8 -1.911753E-01 -1.911753E-01  9.723030E+02  4.724028E-09  4.574791E-09  1.237655E-08
         7   1 -1.911753E-01 -1.911753E-01  9.723030E+02  2.732622E-09 -2.892005E-09  1.103379E-08
         7   2 -1.911753E-01 -1.911753E-01  9.723030E+02  3.483970E-10 -3.571869E-09  3.573734E-09
         7   3 -1.911753E-01 -1.911753E-01  9.723030E+02  3.468184E-09 -8.663477E-09  8.663266E-09
         7   4 -1.911753E-01 -1.911753E-01  9.723030E+02  2.733262E-09 -1.103225E-08  2.894509E-09
         7   5 -1.911753E-01 -1.911753E-01  9.723030E+02  4.723874E-09 -4.574121E-09 -1.237627E-08
         7   6 -1.911753E-01 -1.911753E-01  9.723030E+02  5.985704E-09  1.418404E-08 -1.418606E-08
         7   7 -1.911752E-01 -1.911752E-01  9.723030E+02  7.944775E-09 -1.626738E-08  1.626979E-08
         7   8 -1.911753E-01 -1.911753E-01  9.723030E+02  4.723818E-09  1.237560E-08  4.570823E-09
         8   1 -1.911753E-01 -1.911753E-01  9.723030E+02 -3.481680E-10  3.572098E-09  3.573726E-09
         8   2 -1.911753E-01 -1.911753E-01  9.723030E+02 -2.732226E-09  2.891356E-09  1.103414E-08
         8   3 -1.911753E-01 -1.911753E-01  9.723030E+02 -2.733047E-09  1.103291E-08  2.895087E-09
         8   4 -1.911753E-01 -1.911753E-01  9.723030E+02 -3.468374E-09  8.662730E-09  8.663800E-09
         8   5 -1.911753E-01 -1.911753E-01  9.723030E+02 -5.985760E-09 -1.418388E-08 -1.418596E-08
         8   6 -1.911753E-01 -1.911753E-01  9.723030E+02 -4.723925E-09  4.573437E-09 -1.237846E-08
         8   7 -1.911753E-01 -1.911753E-01  9.723030E+02 -4.723989E-09 -1.237478E-08  4.570239E-09
         8   8 -1.911752E-01 -1.911752E-01  9.723030E+02 -7.944729E-09  1.626646E-08  1.627063E-08
         9   1 -1.911753E-01 -1.911753E-01  9.723030E+02  8.349857E-10  2.936800E-08  2.937287E-08
         9   2 -1.911753E-01 -1.911753E-01  9.723030E+02  1.571915E-09  2.730520E-08  1.520973E-09
         9   3 -1.911753E-01 -1.911753E-01  9.723030E+02  1.572895E-09  1.521632E-09  2.731065E-08
         9   4 -1.911753E-01 -1.911753E-01  9.723030E+02 -7.898441E-10  4.276537E-09  4.279954E-09
         9   5 -1.911754E-01 -1.911754E-01  9.723030E+02  3.690092E-08  4.205154E-08  4.205556E-08
         9   6 -1.911752E-01 -1.911753E-01  9.723030E+02  2.558813E-08 -5.486261E-08  3.736960E-08
         9   7 -1.911753E-01 -1.911752E-01  9.723030E+02  2.558241E-08  3.736290E-08 -5.487866E-08
         9   8 -1.911753E-01 -1.911753E-01  9.723030E+02  2.107933E-08 -4.265881E-08 -4.266380E-08
        10   1 -1.911753E-01 -1.911753E-01  9.723030E+02 -1.571720E-09 -2.730522E-08  1.521305E-09
        10   2 -1.911753E-01 -1.911753E-01  9.723030E+02 -8.351005E-10 -2.936812E-08  2.937398E-08
        10   3 -1.911753E-01 -1.911753E-01  9.723030E+02  7.901742E-10 -4.276128E-09  4.281404E-09
        10   4 -1.911753E-01 -1.911753E-01  9.723030E+02 -1.573320E-09 -1.520862E-09  2.731028E-08
        10   5 -1.911752E-01 -1.911753E-01  9.723030E+02 -2.558807E-08  5.486413E-08  3.737049E-08
        10   6 -1.911754E-01 -1.911754E-01  9.723030E+02 -3.690077E-08 -4.205303E-08  4.205442E-08
        10   7 -1.911753E-01 -1.911753E-01  9.723030E+02 -2.107924E-08  4.265989E-08 -4.266277E-08
        10   8 -1.911753E-01 -1.911752E-01  9.723030E+02 -2.558235E-08 -3.736180E-08 -5.487685E-08
        11   1 -1.911753E-01 -1.911753E-01  9.723030E+02 -1.572992E-09  1.521062E-09 -2.731140E-08
        11   2 -1.911753E-01 -1.911753E-01  9.723030E+02  7.903585E-10  4.276745E-09 -4.279508E-09
        11   3 -1.911753E-01 -1.911753E-01  9.723030E+02 -8.349969E-10  2.936802E-08 -2.937282E-08
        11   4 -1.911753E-01 -1.911753E-01  9.723030E+02 -1.571607E-09  2.730420E-08 -1.521513E-09
        11   5 -1.911753E-01 -1.911752E-01  9.723030E+02 -2.558276E-08  3.736248E-08  5.487735E-08
        11   6 -1.911753E-01 -1.911753E-01  9.723030E+02 -2.107978E-08 -4.266095E-08  4.266250E-08
        11   7 -1.911754E-01 -1.911754E-01  9.723030E+02 -3.690053E-08  4.205057E-08 -4.205328E-08
        11   8 -1.911752E-01 -1.911753E-01  9.723030E+02 -2.558809E-08 -5.486299E-08 -3.736935E-08
        12   1 -1.911753E-01 -1.911753E-01  9.723030E+02 -7.900170E-10 -4.277229E-09 -4.279888E-09
        12   2 -1.911753E-01 -1.911753E-01  9.723030E+02  1.572552E-09 -1.521737E-09 -2.731048E-08
        12   3 -1.911753E-01 -1.911753E-01  9.723030E+02  1.571906E-09 -2.730464E-08 -1.520181E-09
        12   4 -1.911753E-01 -1.911753E-01  9.723030E+02  8.347648E-10 -2.936849E-08 -2.937304E-08
        12   5 -1.911753E-01 -1.911753E-01  9.723030E+02  2.107940E-08  4.266070E-08  4.266365E-08
        12   6 -1.911753E-01 -1.911752E-01  9.723030E+02  2.558249E-08 -3.736394E-08  5.487762E-08
        12   7 -1.911752E-01 -1.911753E-01  9.723030E+02  2.558807E-08  5.486232E-08 -3.736935E-08
        12   8 -1.911754E-01 -1.911754E-01  9.723030E+02  3.690079E-08 -4.205057E-08 -4.205386E-08
        13   1 -1.911752E-01 -1.911752E-01  9.723030E+02 -3.213856E-08 -4.945538E-08 -4.944994E-08
        13   2 -1.911752E-01 -1.911753E-01  9.723030E+02 -2.177667E-08 -5.750970E-08 -2.708597E-08
        13   3 -1.911753E-01 -1.911752E-01  9.723030E+02 -2.176715E-08 -2.706289E-08 -5.751543E-08
        13   4 -1.911753E-01 -1.911753E-01  9.723030E+02 -5.618894E-09 -1.555655E-08 -1.556774E-08
        13   5 -1.911749E-01 -1.911749E-01  9.723030E+02 -2.003788E-08 -2.116900E-07 -2.117454E-07
        13   6 -1.911755E-01 -1.911755E-01  9.723030E+02 -2.504295E-08  1.839960E-07 -8.499430E-08
        13   7 -1.911755E-01 -1.911755E-01  9.723030E+02 -2.505872E-08 -8.502183E-08  1.840244E-07
        13   8 -1.911753E-01 -1.911753E-01  9.723030E+02 -3.698182E-08  1.702272E-07  1.702423E-07
        14   1 -1.911752E-01 -1.911753E-01  9.723030E+02  2.177656E-08  5.751074E-08 -2.708755E-08
        14   2 -1.911752E-01 -1.911752E-01  9.723030E+02  3.213830E-08  4.945427E-08 -4.945074E-08
        14   3 -1.911753E-01 -1.911753E-01  9.723030E+02  5.618158E-09  1.555664E-08 -1.556590E-08
        14   4 -1.911753E-01 -1.911752E-01  9.723030E+02  2.176699E-08  2.706005E-08 -5.751447E-08
        14   5 -1.911755E-01 -1.911755E-01  9.723030E+02  2.504340E-08 -1.839956E-07 -8.499324E-08
        14   6 -1.911749E-01 -1.911749E-01  9.723030E+02  2.003734E-08  2.116882E-07 -2.117444E-07
        14   7 -1.911753E-01 -1.911753E-01  9.723030E+02  3.698159E-08 -1.702251E-07  1.702440E-07
        14   8 -1.911755E-01 -1.911755E-01  9.723030E+02  2.505939E-08  8.502422E-08  1.840252E-07
        15   1 -1.911753E-01 -1.911752E-01  9.723030E+02  2.176748E-08 -2.706452E-08  5.751454E-08
        15   2 -1.911753E-01 -1.911753E-01  9.723030E+02  5.618565E-09 -1.555831E-08  1.556793E-08
        15   3 -1.911752E-01 -1.911752E-01  9.723030E+02  3.213865E-08 -4.945516E-08  4.945016E-08
        15   4 -1.911752E-01 -1.911753E-01  9.723030E+02  2.177693E-08 -5.751024E-08  2.708754E-08
        15   5 -1.911755E-01 -1.911755E-01  9.723030E+02  2.505912E-08 -8.502328E-08 -1.840217E-07
        15   6 -1.911753E-01 -1.911753E-01  9.723030E+02  3.698144E-08  1.702255E-07 -1.702444E-07
        15   7 -1.911749E-01 -1.911749E-01  9.723030E+02  2.003731E-08 -2.116879E-07  2.117457E-07
        15   8 -1.911755E-01 -1.911755E-01  9.723030E+02  2.504335E-08  1.839937E-07  8.499496E-08
        16   1 -1.911753E-01 -1.911753E-01  9.723030E+02 -5.618608E-09  1.555825E-08  1.556976E-08
        16   2 -1.911753E-01 -1.911752E-01  9.723030E+02 -2.176740E-08  2.706042E-08  5.751530E-08
        16   3 -1.911752E-01 -1.911753E-01  9.723030E+02 -2.177647E-08  5.750888E-08  2.708661E-08
        16   4 -1.911752E-01 -1.911752E-01  9.723030E+02 -3.213832E-08  4.945340E-08  4.944883E-08
        16   5 -1.911753E-01 -1.911753E-01  9.723030E+02 -3.698212E-08 -1.702250E-07 -1.702439E-07
        16   6 -1.911755E-01 -1.911755E-01  9.723030E+02 -2.505789E-08  8.502143E-08 -1.840245E-07
        16   7 -1.911755E-01 -1.911755E-01  9.723030E+02 -2.504346E-08 -1.839949E-07  8.499352E-08
        16   8 -1.911749E-01 -1.911749E-01  9.723030E+02 -2.003765E-08  2.116885E-07  2.117450E-07
        17   1 -1.911757E-01 -1.911757E-01  9.723030E+02 -3.891421E-08  2.155109E-07  2.155631E-07
        17   2 -1.911754E-01 -1.911753E-01  9.723030E+02 -2.137715E-08  1.447258E-07 -9.724185E-09
        17   3 -1.911753E-01 -1.911754E-01  9.723030E+02 -2.135600E-08 -9.696585E-09  1.447644E-07
        17   4 -1.911754E-01 -1.911754E-01  9.723030E+02 -1.750895E-08 -1.825576E-08 -1.823390E-08
        17   5 -1.911760E-01 -1.911760E-01  9.723030E+02  2.595715E-07  5.249273E-07  5.249762E-07
        17   6 -1.911749E-01 -1.911750E-01  9.723030E+02  2.215892E-07 -6.880536E-07  4.828740E-07
        17   7 -1.911750E-01 -1.911749E-01  9.723030E+02  2.215623E-07  4.827621E-07 -6.882324E-07
        17   8 -1.911753E-01 -1.911753E-01  9.723030E+02  1.640945E-07 -4.600422E-07 -4.600644E-07
        18   1 -1.911754E-01 -1.911753E-01  9.723030E+02  2.137785E-08 -1.447240E-07 -9.725990E-09
        18   2 -1.911757E-01 -1.911757E-01  9.723030E+02  3.891395E-08 -2.155112E-07  2.155642E-07
        18   3 -1.911754E-01 -1.911754E-01  9.723030E+02  1.750881E-08  1.825148E-08 -1.823332E-08
        18   4 -1.911753E-01 -1.911754E-01  9.723030E+02  2.135689E-08  9.696981E-09  1.447638E-07
        18   5 -1.911749E-01 -1.911750E-01  9.723030E+02 -2.215897E-07  6.880525E-07  4.828714E-07
        18   6 -1.911760E-01 -1.911760E-01  9.723030E+02 -2.595718E-07 -5.249282E-07  5.249770E-07
        18   7 -1.911753E-01 -1.911753E-01  9.723030E+02 -1.640957E-07  4.600411E-07 -4.600661E-07
        18   8 -1.911750E-01 -1.911749E-01  9.723030E+02 -2.215626E-07 -4.827622E-07 -6.882309E-07
        19   1 -1.911753E-01 -1.911754E-01  9.723030E+02  2.135744E-08 -9.695678E-09 -1.447649E-07
        19   2 -1.911754E-01 -1.911754E-01  9.723030E+02  1.750918E-08 -1.825402E-08  1.823657E-08
        19   3 -1.911757E-01 -1.911757E-01  9.723030E+02  3.891376E-08  2.155113E-07 -2.155662E-07
        19   4 -1.911754E-01 -1.911753E-01  9.723030E+02  2.137761E-08  1.447253E-07  9.723273E-09
        19   5 -1.911750E-01 -1.911749E-01  9.723030E+02 -2.215621E-07  4.827607E-07  6.882337E-07
        19   6 -1.911753E-01 -1.911753E-01  9.723030E+02 -1.640952E-07 -4.600422E-07  4.600663E-07
        19   7 -1.911760E-01 -1.911760E-01  9.723030E+02 -2.595718E-07  5.249260E-07 -5.249764E-07
        19   8 -1.911749E-01 -1.911750E-01  9.723030E+02 -2.215894E-07 -6.880510E-07 -4.828726E-07
        20   1 -1.911754E-01 -1.911754E-01  9.723030E+02 -1.750939E-08  1.825512E-08  1.823489E-08
        20   2 -1.911753E-01 -1.911754E-01  9.723030E+02 -2.135707E-08  9.698332E-09 -1.447650E-07
        20   3 -1.911754E-01 -1.911753E-01  9.723030E+02 -2.137693E-08 -1.447246E-07  9.722566E-09
        20   4 -1.911757E-01 -1.911757E-01  9.723030E+02 -3.891428E-08 -2.155125E-07 -2.155634E-07
        20   5 -1.911753E-01 -1.911753E-01  9.723030E+02  1.640942E-07  4.600397E-07  4.600671E-07
        20   6 -1.911750E-01 -1.911749E-01  9.723030E+02  2.215620E-07 -4.827659E-07  6.882324E-07
        20   7 -1.911749E-01 -1.911750E-01  9.723030E+02  2.215902E-07  6.880538E-07 -4.828756E-07
        20   8 -1.911760E-01 -1.911760E-01  9.723030E+02  2.595719E-07 -5.249279E-07 -5.249776E-07
        21   1 -1.911745E-01 -1.911745E-01  9.723030E+02 -2.538430E-07 -2.472568E-07 -2.471373E-07