
 displacements (vx,vy,vz) for set NALL and time  0.2000000E+01

         1  0.000000E+00  0.000000E+00  0.000000E+00
         2  0.000000E+00  0.000000E+00  0.000000E+00
         3  0.000000E+00  0.000000E+00  0.000000E+00
         4  0.000000E+00  0.000000E+00  0.000000E+00
         5  7.137598E-05  7.137598E-05  3.788308E-03
         6 -7.137598E-05  7.137598E-05  3.788308E-03
         7 -7.137598E-05 -7.137598E-05  3.788308E-03
         8  7.137598E-05 -7.137598E-05  3.788308E-03
         9  0.000000E+00  0.000000E+00  0.000000E+00
        10  0.000000E+00  0.000000E+00  0.000000E+00
        11  0.000000E+00  0.000000E+00  0.000000E+00
        12  0.000000E+00  0.000000E+00  0.000000E+00
        13  0.000000E+00  0.000000E+00  0.000000E+00
        14  0.000000E+00  0.000000E+00  0.000000E+00
        15  0.000000E+00  0.000000E+00  0.000000E+00
        16  0.000000E+00  0.000000E+00  0.000000E+00
        17  0.000000E+00  0.000000E+00  0.000000E+00
        18  0.000000E+00  0.000000E+00  0.000000E+00
        19  0.000000E+00  0.000000E+00  0.000000E+00
        20  0.000000E+00  0.000000E+00  0.000000E+00
        21  3.568806E-05  7.137895E-05  3.788312E-03
        22 -1.145314E-17  7.138203E-05  3.788314E-03
        23 -3.568806E-05  7.137895E-05  3.788312E-03
        24 -7.137895E-05  3.568806E-05  3.788312E-03
        25 -7.138203E-05  7.254400E-16  3.788314E-03
        26 -7.137895E-05 -3.568806E-05  3.788312E-03
        27 -3.568806E-05 -7.137895E-05  3.788312E-03
        28 -1.218938E-17 -7.138203E-05  3.788314E-03
        29  3.568806E-05 -7.137895E-05  3.788312E-03
        30  7.137895E-05 -3.568806E-05  3.788312E-03
        31  7.138203E-05  7.243489E-16  3.788314E-03
        32  7.137895E-05  3.568806E-05  3.788312E-03
        33 -7.920567E-05  7.920567E-05  2.297369E-04
        34 -5.941962E-05  5.941962E-05  4.567585E-04
        35 -7.285894E-05  7.285894E-05  6.972554E-04
        36 -6.904441E-05  6.904441E-05  9.331175E-04
        37 -7.168103E-05  7.168103E-05  1.172082E-03
        38 -7.085025E-05  7.085025E-05  1.409669E-03
        39 -7.148928E-05  7.148928E-05  1.647624E-03
        40 -7.123353E-05  7.123353E-05  1.885396E-03
        41 -7.140561E-05  7.140561E-05  2.123321E-03
        42 -7.133943E-05  7.133943E-05  2.361163E-03
        43 -7.138874E-05  7.138874E-05  2.599026E-03
        44 -7.136735E-05  7.136735E-05  2.836877E-03
        45 -7.138172E-05  7.138172E-05  3.074740E-03
        46 -7.137525E-05  7.137525E-05  3.312597E-03
        47 -7.138075E-05  7.138075E-05  3.550454E-03
        48  7.138075E-05  7.138075E-05  3.550454E-03
        49  7.137525E-05  7.137525E-05  3.312597E-03
        50  7.138172E-05  7.138172E-05  3.074740E-03
        51  7.136735E-05  7.136735E-05  2.836877E-03
        52  7.138874E-05  7.138874E-05  2.599026E-03
        53  7.133943E-05  7.133943E-05  2.361163E-03
        54  7.140561E-05  7.140561E-05  2.123321E-03
        55  7.123353E-05  7.123353E-05  1.885396E-03
        56  7.148928E-05  7.148928E-05  1.647624E-03
        57  7.085025E-05  7.085025E-05  1.409669E-03
        58  7.168103E-05  7.168103E-05  1.172082E-03
        59  6.904441E-05  6.904441E-05  9.331175E-04
        60  7.285894E-05  7.285894E-05  6.972554E-04
        61  5.941962E-05  5.941962E-05  4.567585E-04
        62  7.920567E-05  7.920567E-05  2.297369E-04
        63 -7.920567E-05 -7.920567E-05  2.297369E-04
        64 -5.941962E-05 -5.941962E-05  4.567585E-04
        65 -7.285894E-05 -7.285894E-05  6.972554E-04
        66 -6.904441E-05 -6.904441E-05  9.331175E-04
        67 -7.168103E-05 -7.168103E-05  1.172082E-03
        68 -7.085025E-05 -7.085025E-05  1.409669E-03
        69 -7.148928E-05 -7.148928E-05  1.647624E-03
        70 -7.123353E-05 -7.123353E-05  1.885396E-03
        71 -7.140561E-05 -7.140561E-05  2.123321E-03
        72 -7.133943E-05 -7.133943E-05  2.361163E-03
        73 -7.138874E-05 -7.138874E-05  2.599026E-03
        74 -7.136735E-05 -7.136735E-05  2.836877E-03
        75 -7.138172E-05 -7.138172E-05  3.074740E-03
        76 -7.137525E-05 -7.137525E-05  3.312597E-03
        77 -7.138075E-05 -7.138075E-05  3.550454E-03
        78  7.920567E-05 -7.920567E-05  2.297369E-04
        79  5.941962E-05 -5.941962E-05  4.567585E-04
        80  7.285894E-05 -7.285894E-05  6.972554E-04
        81  6.904441E-05 -6.904441E-05  9.331175E-04
        82  7.168103E-05 -7.168103E-05  1.172082E-03
        83  7.085025E-05 -7.085025E-05  1.409669E-03
        84  7.148928E-05 -7.148928E-05  1.647624E-03
        85  7.123353E-05 -7.123353E-05  1.885396E-03
        86  7.140561E-05 -7.140561E-05  2.123321E-03
        87  7.133943E-05 -7.133943E-05  2.361163E-03
        88  7.138874E-05 -7.138874E-05  2.599026E-03
        89  7.136735E-05 -7.136735E-05  2.836877E-03
        90  7.138172E-05 -7.138172E-05  3.074740E-03
        91  7.137525E-05 -7.137525E-05  3.312597E-03
        92  7.138075E-05 -7.138075E-05  3.550454E-03
        93  0.000000E+00  0.000000E+00  0.000000E+00
        94  0.000000E+00  0.000000E+00  0.000000E+00
        95  0.000000E+00  0.000000E+00  0.000000E+00
        96  0.000000E+00  0.000000E+00  0.000000E+00
        97  0.000000E+00  0.000000E+00  0.000000E+00
        98 -1.106652E-17  3.569074E-05  3.788312E-03
        99  3.569074E-05  7.258624E-16  3.788312E-03
       100 -1.121710E-17  7.275505E-16  3.788310E-03
       101 -3.569074E-05  7.265314E-16  3.788312E-03
       102 -1.175387E-17 -3.569074E-05  3.788312E-03
       103 -5.860467E-20  7.927485E-05  2.182012E-04
       104  2.993533E-05  6.072164E-05  4.586496E-04
       105 -1.911007E-19  6.228659E-05  4.619450E-04
       106 -2.993533E-05  6.072164E-05  4.586496E-04
       107 -7.839042E-19  7.158132E-05  6.962507E-04
       108  3.438730E-05  7.002655E-05  9.338926E-04
       109 -1.111904E-18  7.095494E-05  9.345125E-04
       110 -3.438730E-05  7.002655E-05  9.338926E-04
       111 -1.476295E-18  7.116222E-05  1.171747E-03
       112  3.545003E-05  7.120948E-05  1.409757E-03
       113 -1.808381E-18  7.158934E-05  1.409931E-03
       114 -3.545003E-05  7.120948E-05  1.409757E-03
       115 -2.891506E-18  7.130922E-05  1.647577E-03
       116  3.560715E-05  7.135550E-05  1.885455E-03
       117 -3.530156E-18  7.147290E-05  1.885496E-03
       118 -3.560715E-05  7.135550E-05  1.885455E-03
       119 -5.827043E-18  7.135325E-05  2.123292E-03
       120  3.567212E-05  7.137463E-05  2.361171E-03
       121 -6.519472E-18  7.141170E-05  2.361186E-03
       122 -3.567212E-05  7.137463E-05  2.361171E-03
       123 -7.754452E-18  7.137301E-05  2.599022E-03
       124  3.568289E-05  7.137820E-05  2.836882E-03
       125 -7.881456E-18  7.138868E-05  2.836886E-03
       126 -3.568289E-05  7.137820E-05  2.836882E-03
       127 -8.786652E-18  7.137697E-05  3.074738E-03
       128  3.568782E-05  7.137895E-05  3.312597E-03
       129 -9.749054E-18  7.138275E-05  3.312599E-03
       130 -3.568782E-05  7.137895E-05  3.312597E-03
       131 -1.072285E-17  7.137833E-05  3.550454E-03
       132 -7.927485E-05  2.972397E-18  2.182012E-04
       133 -6.072164E-05  2.993533E-05  4.586496E-04
       134 -6.228659E-05  1.570853E-17  4.619450E-04
       135 -6.072164E-05 -2.993533E-05  4.586496E-04
       136 -7.158132E-05  3.488612E-17  6.962507E-04
       137 -7.002655E-05  3.438730E-05  9.338926E-04
       138 -7.095494E-05  6.184795E-17  9.345125E-04
       139 -7.002655E-05 -3.438730E-05  9.338926E-04
       140 -7.116222E-05  9.522136E-17  1.171747E-03
       141 -7.120948E-05  3.545003E-05  1.409757E-03
       142 -7.158934E-05  1.342469E-16  1.409931E-03
       143 -7.120948E-05 -3.545003E-05  1.409757E-03
       144 -7.130922E-05  1.787137E-16  1.647577E-03
       145 -7.135550E-05  3.560715E-05  1.885455E-03
       146 -7.147290E-05  2.277926E-16  1.885496E-03
       147 -7.135550E-05 -3.560715E-05  1.885455E-03
       148 -7.135325E-05  2.793293E-16  2.123292E-03
       149 -7.137463E-05  3.567212E-05  2.361171E-03
       150 -7.141170E-05  3.353590E-16  2.361186E-03
       151 -7.137463E-05 -3.567212E-05  2.361171E-03
       152 -7.137301E-05  3.950726E-16  2.599022E-03
       153 -7.137820E-05  3.568289E-05  2.836882E-03
       154 -7.138868E-05  4.574198E-16  2.836886E-03
       155 -7.137820E-05 -3.568289E-05  2.836882E-03
       156 -7.137697E-05  5.225731E-16  3.074738E-03
       157 -7.137895E-05  3.568782E-05  3.312597E-03
       158 -7.138275E-05  5.891929E-16  3.312599E-03
       159 -7.137895E-05 -3.568782E-05  3.312597E-03
       160 -7.137833E-05  6.579983E-16  3.550454E-03
       161 -1.184846E-19 -7.927485E-05  2.182012E-04
       162 -2.993533E-05 -6.072164E-05  4.586496E-04
       163 -4.428060E-19 -6.228659E-05  4.619450E-04
       164  2.993533E-05 -6.072164E-05  4.586496E-04
       165 -8.261705E-19 -7.158132E-05  6.962507E-04
       166 -3.438730E-05 -7.002655E-05  9.338926E-04
       167 -1.285403E-18 -7.095494E-05  9.345125E-04
       168  3.438730E-05 -7.002655E-05  9.338926E-04
       169 -2.176456E-18 -7.116222E-05  1.171747E-03
       170 -3.545003E-05 -7.120948E-05  1.409757E-03
       171 -2.595177E-18 -7.158934E-05  1.409931E-03
       172  3.545003E-05 -7.120948E-05  1.409757E-03
       173 -4.045842E-18 -7.130922E-05  1.647577E-03
       174 -3.560715E-05 -7.135550E-05  1.885455E-03
       175 -4.692872E-18 -7.147290E-05  1.885496E-03
       176  3.560715E-05 -7.135550E-05  1.885455E-03
       177 -6.103463E-18 -7.135325E-05  2.123292E-03
       178 -3.567212E-05 -7.137463E-05  2.361171E-03
       179 -6.750057E-18 -7.141170E-05  2.361186E-03
       180  3.567212E-05 -7.137463E-05  2.361171E-03
       181 -7.308176E-18 -7.137301E-05  2.599022E-03
       182 -3.568289E-05 -7.137820E-05  2.836882E-03
       183 -8.491404E-18 -7.138868E-05  2.836886E-03
       184  3.568289E-05 -7.137820E-05  2.836882E-03
       185 -8.407481E-18 -7.137697E-05  3.074738E-03
       186 -3.568782E-05 -7.137895E-05  3.312597E-03
       187 -9.825688E-18 -7.138275E-05  3.312599E-03
       188  3.568782E-05 -7.137895E-05  3.312597E-03
       189 -1.090234E-17 -7.137833E-05  3.550454E-03
       190  7.927485E-05  2.821709E-18  2.182012E-04
       191  6.072164E-05 -2.993533E-05  4.586496E-04
       192  6.228659E-05  1.537675E-17  4.619450E-04
       193  6.072164E-05  2.993533E-05  4.586496E-04
       194  7.158132E-05  3.474630E-17  6.962507E-04
       195  7.002655E-05 -3.438730E-05  9.338926E-04
       196  7.095494E-05  6.170698E-17  9.345125E-04
       197  7.002655E-05  3.438730E-05  9.338926E-04
       198  7.116222E-05  9.450154E-17  1.171747E-03
       199  7.120948E-05 -3.545003E-05  1.409757E-03
       200  7.158934E-05  1.334445E-16  1.409931E-03
       201  7.120948E-05  3.545003E-05  1.409757E-03
       202  7.130922E-05  1.773037E-16  1.647577E-03
       203  7.135550E-05 -3.560715E-05  1.885455E-03
       204  7.147290E-05  2.267390E-16  1.885496E-03
       205  7.135550E-05  3.560715E-05  1.885455E-03
       206  7.135325E-05  2.789618E-16  2.123292E-03
       207  7.137463E-05 -3.567212E-05  2.361171E-03
       208  7.141170E-05  3.356261E-16  2.361186E-03
       209  7.137463E-05  3.567212E-05  2.361171E-03
       210  7.137301E-05  3.949986E-16  2.599022E-03
       211  7.137820E-05 -3.568289E-05  2.836882E-03
       212  7.138868E-05  4.584992E-16  2.836886E-03
       213  7.137820E-05  3.568289E-05  2.836882E-03
       214  7.137697E-05  5.221806E-16  3.074738E-03
       215  7.137895E-05 -3.568782E-05  3.312597E-03
       216  7.138275E-05  5.894464E-16  3.312599E-03
       217  7.137895E-05  3.568782E-05  3.312597E-03
       218  7.137833E-05  6.577221E-16  3.550454E-03
       219 -1.344331E-19  4.055611E-18  2.060658E-04
       220 -2.859369E-19  3.118195E-05  4.642566E-04
       221  3.118195E-05  1.636680E-17  4.642566E-04
       222 -3.776451E-19  1.657014E-17  4.678471E-04
       223 -3.118195E-05  1.648609E-17  4.642566E-04
       224 -4.143168E-19 -3.118195E-05  4.642566E-04
       225 -7.961709E-19  3.585642E-17  6.952979E-04
       226 -1.245858E-18  3.537985E-05  9.349592E-04
       227  3.537985E-05  6.245719E-17  9.349592E-04
       228 -1.349361E-18  6.284837E-17  9.353173E-04
       229 -3.537985E-05  6.260293E-17  9.349592E-04
       230 -1.292980E-18 -3.537985E-05  9.349592E-04
       231 -1.773076E-18  9.570864E-17  1.171786E-03
       232 -2.197722E-18  3.580403E-05  1.409827E-03
       233  3.580403E-05  1.342799E-16  1.409827E-03
       234 -2.621838E-18  1.346390E-16  1.409781E-03
       235 -3.580403E-05  1.346005E-16  1.409827E-03
       236 -2.619456E-18 -3.580403E-05  1.409827E-03
       237 -3.232123E-18  1.788864E-16  1.647655E-03
       238 -4.083260E-18  3.573168E-05  1.885459E-03
       239  3.573168E-05  2.274314E-16  1.885459E-03
       240 -4.576673E-18  2.277960E-16  1.885407E-03
       241 -3.573168E-05  2.279712E-16  1.885459E-03
       242 -4.640572E-18 -3.573168E-05  1.885459E-03
       243 -5.706681E-18  2.795801E-16  2.123317E-03
       244 -6.677598E-18  3.570693E-05  2.361165E-03
       245  3.570693E-05  3.361114E-16  2.361165E-03
       246 -6.961522E-18  3.363796E-16  2.361148E-03
       247 -3.570693E-05  3.359961E-16  2.361165E-03
       248 -6.885836E-18 -3.570693E-05  2.361165E-03
       249 -7.576039E-18  3.954264E-16  2.599031E-03
       250 -8.054394E-18  3.569404E-05  2.836881E-03
       251  3.569404E-05  4.585620E-16  2.836881E-03
       252 -8.140220E-18  4.585785E-16  2.836875E-03
       253 -3.569404E-05  4.582158E-16  2.836881E-03
       254 -8.302300E-18 -3.569404E-05  2.836881E-03
       255 -8.481614E-18  5.223558E-16  3.074740E-03
       256 -9.951119E-18  3.569152E-05  3.312597E-03
       257  3.569152E-05  5.901687E-16  3.312597E-03
       258 -1.017385E-17  5.907157E-16  3.312595E-03
       259 -3.569152E-05  5.899921E-16  3.312597E-03
       260 -1.003804E-17 -3.569152E-05  3.312597E-03
       261 -1.080038E-17  6.570524E-16  3.550455E-03

 stresses (elem, integ.pnt.,sxx,syy,szz,sxy,sxz,syz) for set EALL and time  0.2000000E+01

         1   1  1.755066E+01  1.755066E+01  1.045586E+02 -9.952552E-02  9.666236E+00  9.666236E+00
         1   2  1.553566E+01  1.563643E+01  1.000119E+02 -5.095384E-02  1.670054E+00  9.606825E+00
         1   3  1.563643E+01  1.553566E+01  1.000119E+02 -5.095384E-02  9.606825E+00  1.670054E+00
         1   4  1.364604E+01  1.364604E+01  9.537531E+01 -2.470826E-02  1.613015E+00  1.613015E+00
         1   5 -7.581762E+00 -7.581762E+00  9.399809E+01  2.518413E-01 -4.476101E+00 -4.476101E+00
         1   6 -5.510166E+00 -5.606442E+00  9.988692E+01  2.088885E-01 -1.563437E+00 -4.256849E+00
         1   7 -5.606442E+00 -5.510166E+00  9.988692E+01  2.088885E-01 -4.256849E+00 -1.563437E+00
         1   8 -3.099422E+00 -3.099422E+00  1.062429E+02  7.686672E-02 -1.527536E+00 -1.527536E+00
         2   1  1.553566E+01  1.563643E+01  1.000119E+02  5.095384E-02 -1.670054E+00  9.606825E+00
         2   2  1.755066E+01  1.755066E+01  1.045586E+02  9.952552E-02 -9.666236E+00  9.666236E+00
         2   3  1.364604E+01  1.364604E+01  9.537531E+01  2.470826E-02 -1.613015E+00  1.613015E+00
         2   4  1.563643E+01  1.553566E+01  1.000119E+02  5.095384E-02 -9.606825E+00  1.670054E+00
         2   5 -5.510166E+00 -5.606442E+00  9.988692E+01 -2.088885E-01  1.563437E+00 -4.256849E+00
         2   6 -7.581762E+00 -7.581762E+00  9.399809E+01 -2.518413E-01  4.476101E+00 -4.476101E+00
         2   7 -3.099422E+00 -3.099422E+00  1.062429E+02 -7.686672E-02  1.527536E+00 -1.527536E+00
         2   8 -5.606442E+00 -5.510166E+00  9.988692E+01 -2.088885E-01  4.256849E+00 -1.563437E+00
         3   1  1.563643E+01  1.553566E+01  1.000119E+02  5.095384E-02  9.606825E+00 -1.670054E+00
         3   2  1.364604E+01  1.364604E+01  9.537531E+01  2.470826E-02  1.613015E+00 -1.613015E+00
         3   3  1.755066E+01  1.755066E+01  1.045586E+02  9.952552E-02  9.666236E+00 -9.666236E+00
         3   4  1.553566E+01  1.563643E+01  1.000119E+02  5.095384E-02  1.670054E+00 -9.606825E+00
         3   5 -5.606442E+00 -5.510166E+00  9.988692E+01 -2.088885E-01 -4.256849E+00  1.563437E+00
         3   6 -3.099422E+00 -3.099422E+00  1.062429E+02 -7.686672E-02 -1.527536E+00  1.527536E+00
         3   7 -7.581762E+00 -7.581762E+00  9.399809E+01 -2.518413E-01 -4.476101E+00  4.476101E+00
         3   8 -5.510166E+00 -5.606442E+00  9.988692E+01 -2.088885E-01 -1.563437E+00  4.256849E+00
         4   1  1.364604E+01  1.364604E+01  9.537531E+01 -2.470826E-02 -1.613015E+00 -1.613015E+00
         4   2  1.563643E+01  1.553566E+01  1.000119E+02 -5.095384E-02 -9.606825E+00 -1.670054E+00
         4   3  1.553566E+01  1.563643E+01  1.000119E+02 -5.095384E-02 -1.670054E+00 -9.606825E+00
         4   4  1.755066E+01  1.755066E+01  1.045586E+02 -9.952552E-02 -9.666236E+00 -9.666236E+00
         4   5 -3.099422E+00 -3.099422E+00  1.062429E+02  7.686672E-02  1.527536E+00  1.527536E+00
         4   6 -5.606442E+00 -5.510166E+00  9.988692E+01  2.088885E-01  4.256849E+00  1.563437E+00
         4   7 -5.510166E+00 -5.606442E+00  9.988692E+01  2.088885E-01  1.563437E+00  4.256849E+00
         4   8 -7.581762E+00 -7.581762E+00  9.399809E+01  2.518413E-01  4.476101E+00  4.476101E+00
         5   1  3.748103E+00  3.748103E+00  1.024926E+02 -3.140776E-02  1.815493E+00  1.815493E+00
         5   2  2.376064E+00  2.453699E+00  9.998467E+01  2.670937E-02  9.184132E-01  1.524917E+00
         5   3  2.453699E+00  2.376064E+00  9.998467E+01  2.670937E-02  1.524917E+00  9.184132E-01
         5   4  1.328216E+00  1.328216E+00  9.753147E+01  4.799642E-04  8.635901E-01  8.635901E-01
         5   5 -1.310035E+00 -1.310035E+00  9.896911E+01 -9.046996E-02 -7.195484E-01 -7.195484E-01
         5   6 -7.028183E-01 -7.361201E-01  1.000274E+02 -5.428204E-02 -2.506329E-01 -4.688006E-01
         5   7 -7.361201E-01 -7.028183E-01  1.000274E+02 -5.428204E-02 -4.688006E-01 -2.506329E-01
         5   8 -1.589137E-01 -1.589137E-01  1.009780E+02 -2.375679E-02 -1.967519E-01 -1.967519E-01
         6   1  2.376064E+00  2.453699E+00  9.998467E+01 -2.670937E-02 -9.184132E-01  1.524917E+00
         6   2  3.748103E+00  3.748103E+00  1.024926E+02  3.140776E-02 -1.815493E+00  1.815493E+00
         6   3  1.328216E+00  1.328216E+00  9.753147E+01 -4.799642E-04 -8.635901E-01  8.635901E-01
         6   4  2.453699E+00  2.376064E+00  9.998467E+01 -2.670937E-02 -1.524917E+00  9.184132E-01
         6   5 -7.028183E-01 -7.361201E-01  1.000274E+02  5.428204E-02  2.506329E-01 -4.688006E-01
         6   6 -1.310035E+00 -1.310035E+00  9.896911E+01  9.046996E-02  7.195484E-01 -7.195484E-01
         6   7 -1.589137E-01 -1.589137E-01  1.009780E+02  2.375679E-02  1.967519E-01 -1.967519E-01
         6   8 -7.361201E-01 -7.028183E-01  1.000274E+02  5.428204E-02  4.688006E-01 -2.506329E-01
         7   1  2.453699E+00  2.376064E+00  9.998467E+01 -2.670937E-02  1.524917E+00 -9.184132E-01
         7   2  1.328216E+00  1.328216E+00  9.753147E+01 -4.799642E-04  8.635901E-01 -8.635901E-01
         7   3  3.748103E+00  3.748103E+00  1.024926E+02  3.140776E-02  1.815493E+00 -1.815493E+00
         7   4  2.376064E+00  2.453699E+00  9.998467E+01 -2.670937E-02  9.184132E-01 -1.524917E+00
         7   5 -7.361201E-01 -7.028183E-01  1.000274E+02  5.428204E-02 -4.688006E-01  2.506329E-01
         7   6 -1.589137E-01 -1.589137E-01  1.009780E+02  2.375679E-02 -1.967519E-01  1.967519E-01
         7   7 -1.310035E+00 -1.310035E+00  9.896911E+01  9.046996E-02 -7.195484E-01  7.195484E-01
         7   8 -7.028183E-01 -7.361201E-01  1.000274E+02  5.428204E-02 -2.506329E-01  4.688006E-01
         8   1  1.328216E+00  1.328216E+00  9.753147E+01  4.799642E-04 -8.635901E-01 -8.635901E-01
         8   2  2.453699E+00  2.376064E+00  9.998467E+01  2.670937E-02 -1.524917E+00 -9.184132E-01
         8   3  2.376064E+00  2.453699E+00  9.998467E+01  2.670937E-02 -9.184132E-01 -1.524917E+00
         8   4  3.748103E+00  3.748103E+00  1.024926E+02 -3.140776E-02 -1.815493E+00 -1.815493E+00
         8   5 -1.589137E-01 -1.589137E-01  1.009780E+02 -2.375679E-02  1.967519E-01  1.967519E-01
         8   6 -7.361201E-01 -7.028183E-01  1.000274E+02 -5.428204E-02  4.688006E-01  2.506329E-01
         8   7 -7.028183E-01 -7.361201E-01  1.000274E+02 -5.428204E-02  2.506329E-01  4.688006E-01
         8   8 -1.310035E+00 -1.310035E+00  9.896911E+01 -9.046996E-02  7.195484E-01  7.195484E-01
         9   1  4.737523E-01  4.737523E-01  1.004450E+02  1.273013E-01  3.813327E-01  3.813327E-01
         9   2  4.385435E-01  2.263119E-01  9.995637E+01  7.157832E-02  1.295916E-01  1.775788E-01
         9   3  2.263119E-01  4.385435E-01  9.995637E+01  7.157832E-02  1.775788E-01  1.295916E-01
         9   4  2.235968E-01  2.235968E-01  9.964131E+01  3.223230E-02  8.225359E-02  8.225359E-02
         9   5 -2.131773E-01 -2.131773E-01  9.980300E+01 -6.411770E-02 -1.377429E-01 -1.377429E-01
         9   6 -7.141788E-02 -4.271241E-02  1.000421E+02 -3.955357E-02 -5.187972E-02 -1.258908E-02
         9   7 -4.271241E-02 -7.141788E-02  1.000421E+02 -3.955357E-02 -1.258908E-02 -5.187972E-02
         9   8  3.403071E-02  3.403071E-02  1.001129E+02 -1.709879E-02 -1.150745E-02 -1.150745E-02
        10   1  4.385435E-01  2.263119E-01  9.995637E+01 -7.157832E-02 -1.295916E-01  1.775788E-01
        10   2  4.737523E-01  4.737523E-01  1.004450E+02 -1.273013E-01 -3.813327E-01  3.813327E-01
        10   3  2.235968E-01  2.235968E-01  9.964131E+01 -3.223230E-02 -8.225359E-02  8.225359E-02
        10   4  2.263119E-01  4.385435E-01  9.995637E+01 -7.157832E-02 -1.775788E-01  1.295916E-01
        10   5 -7.141788E-02 -4.271241E-02  1.000421E+02  3.955357E-02  5.187972E-02 -1.258908E-02
        10   6 -2.131773E-01 -2.131773E-01  9.980300E+01  6.411770E-02  1.377429E-01 -1.377429E-01
        10   7  3.403071E-02  3.403071E-02  1.001129E+02  1.709879E-02  1.150745E-02 -1.150745E-02
        10   8 -4.271241E-02 -7.141788E-02  1.000421E+02  3.955357E-02  1.258908E-02 -5.187972E-02
        11   1  2.263119E-01  4.385435E-01  9.995637E+01 -7.157832E-02  1.775788E-01 -1.295916E-01
        11   2  2.235968E-01  2.235968E-01  9.964131E+01 -3.223230E-02  8.225359E-02 -8.225359E-02
        11   3  4.737523E-01  4.737523E-01  1.004450E+02 -1.273013E-01  3.813327E-01 -3.813327E-01
        11   4  4.385435E-01  2.263119E-01  9.995637E+01 -7.157832E-02  1.295916E-01 -1.775788E-01
        11   5 -4.271241E-02 -7.141788E-02  1.000421E+02  3.955357E-02 -1.258908E-02  5.187972E-02
        11   6  3.403071E-02  3.403071E-02  1.001129E+02  1.709879E-02 -1.150745E-02  1.150745E-02
        11   7 -2.131773E-01 -2.131773E-01  9.980300E+01  6.411770E-02 -1.377429E-01  1.377429E-01
        11   8 -7.141788E-02 -4.271241E-02  1.000421E+02  3.955357E-02 -5.187972E-02  1.258908E-02
        12   1  2.235968E-01  2.235968E-01  9.964131E+01  3.223230E-02 -8.225359E-02 -8.225359E-02
        12   2  2.263119E-01  4.385435E-01  9.995637E+01  7.157832E-02 -1.775788E-01 -1.295916E-01
        12   3  4.385435E-01  2.263119E-01  9.995637E+01  7.157832E-02 -1.295916E-01 -1.775788E-01
        12   4  4.737523E-01  4.737523E-01  1.004450E+02  1.273013E-01 -3.813327E-01 -3.813327E-01
        12   5  3.403071E-02  3.403071E-02  1.001129E+02 -1.709879E-02  1.150745E-02  1.150745E-02
        12   6 -4.271241E-02 -7.141788E-02  1.000421E+02 -3.955357E-02  1.258908E-02  5.187972E-02
        12   7 -7.141788E-02 -4.271241E-02  1.000421E+02 -3.955357E-02  5.187972E-02  1.258908E-02
        12   8 -2.131773E-01 -2.131773E-01  9.980300E+01 -6.411770E-02  1.377429E-01  1.377429E-01
        13   1  1.276842E-01  1.276842E-01  1.000874E+02  4.077614E-02  6.117073E-02  6.117073E-02
        13   2  2.698787E-02  9.962294E-03  9.996779E+01  2.946194E-02  3.713068E-02 -1.886385E-02
        13   3  9.962294E-03  2.698787E-02  9.996779E+01  2.946194E-02 -1.886385E-02  3.713068E-02
        13   4 -1.767054E-02 -1.767054E-02  9.997694E+01  1.156441E-02  7.736241E-03  7.736241E-03
        13   5 -4.597859E-02 -4.597859E-02  9.996955E+01 -2.588147E-02 -3.011248E-02 -3.011248E-02
        13   6 -1.229717E-02  3.512769E-03  1.000181E+02 -1.614693E-02 -9.219581E-03  1.392051E-02
        13   7  3.512769E-03 -1.229717E-02  1.000181E+02 -1.614693E-02  1.392051E-02 -9.219581E-03
        13   8  5.311576E-03  5.311576E-03  9.999420E+01 -6.733894E-03  5.833741E-03  5.833741E-03
        14   1  2.698787E-02  9.962294E-03  9.996779E+01 -2.946194E-02 -3.713068E-02 -1.886385E-02
        14   2  1.276842E-01  1.276842E-01  1.000874E+02 -4.077614E-02 -6.117073E-02  6.117073E-02
        14   3 -1.767054E-02 -1.767054E-02  9.997694E+01 -1.156441E-02 -7.736241E-03  7.736241E-03
        14   4  9.962294E-03  2.698787E-02  9.996779E+01 -2.946194E-02  1.886385E-02  3.713068E-02
        14   5 -1.229717E-02  3.512769E-03  1.000181E+02  1.614693E-02  9.219581E-03  1.392051E-02
        14   6 -4.597859E-02 -4.597859E-02  9.996955E+01  2.588147E-02  3.011248E-02 -3.011248E-02
        14   7  5.311576E-03  5.311576E-03  9.999420E+01  6.733894E-03 -5.833741E-03  5.833741E-03
        14   8  3.512769E-03 -1.229717E-02  1.000181E+02  1.614693E-02 -1.392051E-02 -9.219581E-03
        15   1  9.962294E-03  2.698787E-02  9.996779E+01 -2.946194E-02 -1.886385E-02 -3.713068E-02
        15   2 -1.767054E-02 -1.767054E-02  9.997694E+01 -1.156441E-02  7.736241E-03 -7.736241E-03
        15   3  1.276842E-01  1.276842E-01  1.000874E+02 -4.077614E-02  6.117073E-02 -6.117073E-02
        15   4  2.698787E-02  9.962294E-03  9.996779E+01 -2.946194E-02  3.713068E-02  1.886385E-02
        15   5  3.512769E-03 -1.229717E-02  1.000181E+02  1.614693E-02  1.392051E-02  9.219581E-03
        15   6  5.311576E-03  5.311576E-03  9.999420E+01  6.733894E-03  5.833741E-03 -5.833741E-03
        15   7 -4.597859E-02 -4.597859E-02  9.996955E+01  2.588147E-02 -3.011248E-02  3.011248E-02
        15   8 -1.229717E-02  3.512769E-03  1.000181E+02  1.614693E-02 -9.219581E-03 -1.392051E-02
        16   1 -1.767054E-02 -1.767054E-02  9.997694E+01  1.156441E-02 -7.736241E-03 -7.736241E-03
        16   2  9.962294E-03  2.698787E-02  9.996779E+01  2.946194E-02  1.886385E-02 -3.713068E-02
        16   3  2.698787E-02  9.962294E-03  9.996779E+01  2.946194E-02 -3.713068E-02  1.886385E-02
        16   4  1.276842E-01  1.276842E-01  1.000874E+02  4.077614E-02 -6.117073E-02 -6.117073E-02
        16   5  5.311576E-03  5.311576E-03  9.999420E+01 -6.733894E-03 -5.833741E-03 -5.833741E-03
        16   6  3.512769E-03 -1.229717E-02  1.000181E+02 -1.614693E-02 -1.392051E-02  9.219581E-03
        16   7 -1.229717E-02  3.512769E-03  1.000181E+02 -1.614693E-02  9.219581E-03 -1.392051E-02
        16   8 -4.597859E-02 -4.597859E-02  9.996955E+01 -2.588147E-02  3.011248E-02  3.011248E-02
        17   1  1.601920E-02  1.601920E-02  1.000171E+02  1.832850E-02  2.056759E-02  2.056759E-02
        17   2  1.262993E-02 -7.448002E-03  9.998834E+01  1.095258E-02  4.675590E-03 -7.574442E-03
        17   3 -7.448002E-03  1.262993E-02  9.998834E+01  1.095258E-02 -7.574442E-03  4.675590E-03
        17   4  3.462294E-03  3.462294E-03  1.000062E+02  4.961312E-03 -5.684809E-03 -5.684809E-03
        17   5 -1.064497E-02 -1.064497E-02  9.999014E+01 -8.098284E-03 -8.559918E-03 -8.559918E-03
        17   6 -7.147949E-04  4.886704E-03  1.000068E+02 -4.988321E-03 -3.196372E-03  5.862165E-03
        17   7  4.886704E-03 -7.147949E-04  1.000068E+02 -4.988321E-03  5.862165E-03 -3.196372E-03
        17   8  3.158024E-03  3.158024E-03  9.999620E+01 -2.094306E-03  2.385480E-03  2.385480E-03
        18   1  1.262993E-02 -7.448002E-03  9.998834E+01 -1.095258E-02 -4.675590E-03 -7.574442E-03
        18   2  1.601920E-02  1.601920E-02  1.000171E+02 -1.832850E-02 -2.056759E-02  2.056759E-02
        18   3  3.462294E-03  3.462294E-03  1.000062E+02 -4.961312E-03  5.684809E-03 -5.684809E-03
        18   4 -7.448002E-03  1.262993E-02  9.998834E+01 -1.095258E-02  7.574442E-03  4.675590E-03
        18   5 -7.147949E-04  4.886704E-03  1.000068E+02  4.988321E-03  3.196372E-03  5.862165E-03
        18   6 -1.064497E-02 -1.064497E-02  9.999014E+01  8.098284E-03  8.559918E-03 -8.559918E-03
        18   7  3.158024E-03  3.158024E-03  9.999620E+01  2.094306E-03 -2.385480E-03  2.385480E-03
        18   8  4.886704E-03 -7.147949E-04  1.000068E+02  4.988321E-03 -5.862165E-03 -3.196372E-03
        19   1 -7.448002E-03  1.262993E-02  9.998834E+01 -1.095258E-02 -7.574442E-03 -4.675590E-03
        19   2  3.462294E-03  3.462294E-03  1.000062E+02 -4.961312E-03 -5.684809E-03  5.684809E-03
        19   3  1.601920E-02  1.601920E-02  1.000171E+02 -1.832850E-02  2.056759E-02 -2.056759E-02
        19   4  1.262993E-02 -7.448002E-03  9.998834E+01 -1.095258E-02  4.675590E-03  7.574442E-03
        19   5  4.886704E-03 -7.147949E-04  1.000068E+02  4.988321E-03  5.862165E-03  3.196372E-03
        19   6  3.158024E-03  3.158024E-03  9.999620E+01  2.094306E-03  2.385480E-03 -2.385480E-03
        19   7 -1.064497E-02 -1.064497E-02  9.999014E+01  8.098284E-03 -8.559918E-03  8.559918E-03
        19   8 -7.147949E-04  4.886704E-03  1.000068E+02  4.988321E-03 -3.196372E-03 -5.862165E-03
        20   1  3.462294E-03  3.462294E-03  1.000062E+02  4.961312E-03  5.684809E-03  5.684809E-03
        20   2 -7.448002E-03  1.262993E-02  9.998834E+01  1.095258E-02  7.574442E-03 -4.675590E-03
        20   3  1.262993E-02 -7.448002E-03  9.998834E+01  1.095258E-02 -4.675590E-03  7.574442E-03
        20   4  1.601920E-02  1.601920E-02  1.000171E+02  1.832850E-02 -2.056759E-02 -2.056759E-02
        20   5  3.158024E-03  3.158024E-03  9.999620E+01 -2.094306E-03 -2.385480E-03 -2.385480E-03
        20   6  4.886704E-03 -7.147949E-04  1.000068E+02 -4.988321E-03 -5.862165E-03  3.196372E-03
        20   7 -7.147949E-04  4.886704E-03  1.000068E+02 -4.988321E-03  3.196372E-03 -5.862165E-03
        20   8 -1.064497E-02 -1.064497E-02  9.999014E+01 -8.098284E-03  8.559918E-03  8.559918E-03
        21   1  8.340405E-03  8.340405E-03  1.000051E+02  4.434288E-03  4.027984E-03  4.027984E-03