    1C
    1UModel: beam     Date: 10-Mar-1998                                 
    1UUSER                                                              
    1UDATE              15.december.2018                                
    1UTIME              15:48:19                                        
    1UHOST                                                              
    1UPGM               CalculiX                                        
    1UVERSION           Version 2.15                             
    1UCOMPILETIME       Sa 15. Dez 14:32:01 CET 2018                    
    1UDIR                                                               
    1UDBN                                                               
    1UMAT    1EL                                                        
    2C                            81                                     1
 -1         1 0.00000E+00 0.00000E+00 0.00000E+00
 -1         2 1.00000E+00 0.00000E+00 0.00000E+00
 -1         3 1.00000E+00 1.50000E+00 0.00000E+00
 -1         4 0.00000E+00 1.50000E+00 0.00000E+00
 -1         5 0.00000E+00 0.00000E+00 8.00000E+00
 -1         6 1.00000E+00 0.00000E+00 8.00000E+00
 -1         7 1.00000E+00 1.50000E+00 8.00000E+00
 -1         8 0.00000E+00 1.50000E+00 8.00000E+00
 -1        10 5.00000E-01 0.00000E+00 0.00000E+00
 -1        13 1.00000E+00 7.50000E-01 0.00000E+00
 -1        16 5.00000E-01 1.50000E+00 0.00000E+00
 -1        19 0.00000E+00 7.50000E-01 0.00000E+00
 -1        22 5.00000E-01 0.00000E+00 8.00000E+00
 -1        25 1.00000E+00 7.50000E-01 8.00000E+00
 -1        28 5.00000E-01 1.50000E+00 8.00000E+00
 -1        31 0.00000E+00 7.50000E-01 8.00000E+00
 -1        34 1.00000E+00 0.00000E+00 1.00000E+00
 -1        36 1.00000E+00 0.00000E+00 2.00000E+00
 -1        38 1.00000E+00 0.00000E+00 3.00000E+00
 -1        40 1.00000E+00 0.00000E+00 4.00000E+00
 -1        42 1.00000E+00 0.00000E+00 5.00000E+00
 -1        44 1.00000E+00 0.00000E+00 6.00000E+00
 -1        46 1.00000E+00 0.00000E+00 7.00000E+00
 -1        49 0.00000E+00 0.00000E+00 7.00000E+00
 -1        51 0.00000E+00 0.00000E+00 6.00000E+00
 -1        53 0.00000E+00 0.00000E+00 5.00000E+00
 -1        55 0.00000E+00 0.00000E+00 4.00000E+00
 -1        57 0.00000E+00 0.00000E+00 3.00000E+00
 -1        59 0.00000E+00 0.00000E+00 2.00000E+00
 -1        61 0.00000E+00 0.00000E+00 1.00000E+00
 -1        64 1.00000E+00 1.50000E+00 1.00000E+00
 -1        66 1.00000E+00 1.50000E+00 2.00000E+00
 -1        68 1.00000E+00 1.50000E+00 3.00000E+00
 -1        70 1.00000E+00 1.50000E+00 4.00000E+00
 -1        72 1.00000E+00 1.50000E+00 5.00000E+00
 -1        74 1.00000E+00 1.50000E+00 6.00000E+00
 -1        76 1.00000E+00 1.50000E+00 7.00000E+00
 -1        79 0.00000E+00 1.50000E+00 1.00000E+00
 -1        81 0.00000E+00 1.50000E+00 2.00000E+00
 -1        83 0.00000E+00 1.50000E+00 3.00000E+00
 -1        85 0.00000E+00 1.50000E+00 4.00000E+00
 -1        87 0.00000E+00 1.50000E+00 5.00000E+00
 -1        89 0.00000E+00 1.50000E+00 6.00000E+00
 -1        91 0.00000E+00 1.50000E+00 7.00000E+00
 -1        95 5.00000E-01 7.50000E-01 0.00000E+00
 -1       100 5.00000E-01 7.50000E-01 8.00000E+00
 -1       105 5.00000E-01 0.00000E+00 1.00000E+00
 -1       109 5.00000E-01 0.00000E+00 2.00000E+00
 -1       113 5.00000E-01 0.00000E+00 3.00000E+00
 -1       117 5.00000E-01 0.00000E+00 4.00000E+00
 -1       121 5.00000E-01 0.00000E+00 5.00000E+00
 -1       125 5.00000E-01 0.00000E+00 6.00000E+00
 -1       129 5.00000E-01 0.00000E+00 7.00000E+00
 -1       134 1.00000E+00 7.50000E-01 1.00000E+00
 -1       138 1.00000E+00 7.50000E-01 2.00000E+00
 -1       142 1.00000E+00 7.50000E-01 3.00000E+00
 -1       146 1.00000E+00 7.50000E-01 4.00000E+00
 -1       150 1.00000E+00 7.50000E-01 5.00000E+00
 -1       154 1.00000E+00 7.50000E-01 6.00000E+00
 -1       158 1.00000E+00 7.50000E-01 7.00000E+00
 -1       163 5.00000E-01 1.50000E+00 1.00000E+00
 -1       167 5.00000E-01 1.50000E+00 2.00000E+00
 -1       171 5.00000E-01 1.50000E+00 3.00000E+00
 -1       175 5.00000E-01 1.50000E+00 4.00000E+00
 -1       179 5.00000E-01 1.50000E+00 5.00000E+00
 -1       183 5.00000E-01 1.50000E+00 6.00000E+00
 -1       187 5.00000E-01 1.50000E+00 7.00000E+00
 -1       192 0.00000E+00 7.50000E-01 1.00000E+00
 -1       196 0.00000E+00 7.50000E-01 2.00000E+00
 -1       200 0.00000E+00 7.50000E-01 3.00000E+00
 -1       204 0.00000E+00 7.50000E-01 4.00000E+00
 -1       208 0.00000E+00 7.50000E-01 5.00000E+00
 -1       212 0.00000E+00 7.50000E-01 6.00000E+00
 -1       216 0.00000E+00 7.50000E-01 7.00000E+00
 -1       222 5.00000E-01 7.50000E-01 1.00000E+00
 -1       228 5.00000E-01 7.50000E-01 2.00000E+00
 -1       234 5.00000E-01 7.50000E-01 3.00000E+00
 -1       240 5.00000E-01 7.50000E-01 4.00000E+00
 -1       246 5.00000E-01 7.50000E-01 5.00000E+00
 -1       252 5.00000E-01 7.50000E-01 6.00000E+00
 -1       258 5.00000E-01 7.50000E-01 7.00000E+00
 -3
    3C                            32                                     1
 -1         1    1    0    1
 -2         1        10        95        19        61       105       222       192
 -1         2    1    0    1
 -2        10         2        13        95       105        34       134       222
 -1         3    1    0    1
 -2        19        95        16         4       192       222       163        79
 -1         4    1    0    1
 -2        95        13         3        16       222       134        64       163
 -1         5    1    0    1
 -2        61       105       222       192        59       109       228       196
 -1         6    1    0    1
 -2       105        34       134       222       109        36       138       228
 -1         7    1    0    1
 -2       192       222       163        79       196       228       167        81
 -1         8    1    0    1
 -2       222       134        64       163       228       138        66       167
 -1         9    1    0    1
 -2        59       109       228       196        57       113       234       200
 -1        10    1    0    1
 -2       109        36       138       228       113        38       142       234
 -1        11    1    0    1
 -2       196       228       167        81       200       234       171        83
 -1        12    1    0    1
 -2       228       138        66       167       234       142        68       171
 -1        13    1    0    1
 -2        57       113       234       200        55       117       240       204
 -1        14    1    0    1
 -2       113        38       142       234       117        40       146       240
 -1        15    1    0    1
 -2       200       234       171        83       204       240       175        85
 -1        16    1    0    1
 -2       234       142        68       171       240       146        70       175
 -1        17    1    0    1
 -2        55       117       240       204        53       121       246       208
 -1        18    1    0    1
 -2       117        40       146       240       121        42       150       246
 -1        19    1    0    1
 -2       204       240       175        85       208       246       179        87
 -1        20    1    0    1
 -2       240       146        70       175       246       150        72       179
 -1        21    1    0    1
 -2        53       121       246       208        51       125       252       212
 -1        22    1    0    1
 -2       121        42       150       246       125        44       154       252
 -1        23    1    0    1
 -2       208       246       179        87       212       252       183        89
 -1        24    1    0    1
 -2       246       150        72       179       252       154        74       183
 -1        25    1    0    1
 -2        51       125       252       212        49       129       258       216
 -1        26    1    0    1
 -2       125        44       154       252       129        46       158       258
 -1        27    1    0    1
 -2       212       252       183        89       216       258       187        91
 -1        28    1    0    1
 -2       252       154        74       183       258       158        76       187
 -1        29    1    0    1
 -2        49       129       258       216         5        22       100        31
 -1        30    1    0    1
 -2       129        46       158       258        22         6        25       100
 -1        31    1    0    1
 -2       216       258       187        91        31       100        28         8
 -1        32    1    0    1
 -2       258       158        76       187       100        25         7        28
 -3
    1PSTEP                         1           1           2          
  100CL  111 0.00000E+00          81                     3   11           1
 -4  NORM        4    1
 -5  NORMX       1    2	 1    0
 -5  NORMY       1    2	 2    0
 -5  NORMZ       1    2	 3    0
 -5  ALL         1    2	 0    0    1ALL
 -1         1 0.00000E+00 0.00000E+00 0.00000E+00
 -1         2 0.00000E+00 0.00000E+00 0.00000E+00
 -1         3 0.00000E+00 0.00000E+00 0.00000E+00
 -1         4 0.00000E+00 0.00000E+00 0.00000E+00
 -1         5-5.77350E-01-5.77350E-01 5.77350E-01
 -1         6 5.77350E-01-5.77350E-01 5.77350E-01
 -1         7 5.77350E-01 5.77350E-01 5.77350E-01
 -1         8-5.77350E-01 5.77350E-01 5.77350E-01
 -1        10 0.00000E+00 0.00000E+00 0.00000E+00
 -1        13 0.00000E+00 0.00000E+00 0.00000E+00
 -1        16 0.00000E+00 0.00000E+00 0.00000E+00
 -1        19 0.00000E+00 0.00000E+00 0.00000E+00
 -1        22 0.00000E+00-7.07107E-01 7.07107E-01
 -1        25 7.07107E-01 0.00000E+00 7.07107E-01
 -1        28 0.00000E+00 7.07107E-01 7.07107E-01
 -1        31-7.07107E-01 0.00000E+00 7.07107E-01
 -1        34 7.07107E-01-7.07107E-01 0.00000E+00
 -1        36 7.07107E-01-7.07107E-01 0.00000E+00
 -1        38 7.07107E-01-7.07107E-01 0.00000E+00
 -1        40 7.07107E-01-7.07107E-01 0.00000E+00
 -1        42 7.07107E-01-7.07107E-01 0.00000E+00
 -1        44 7.07107E-01-7.07107E-01 0.00000E+00
 -1        46 7.07107E-01-7.07107E-01 0.00000E+00
 -1        49-7.07107E-01-7.07107E-01 0.00000E+00
 -1        51-7.07107E-01-7.07107E-01 0.00000E+00
 -1        53-7.07107E-01-7.07107E-01 0.00000E+00
 -1        55-7.07107E-01-7.07107E-01 0.00000E+00
 -1        57-7.07107E-01-7.07107E-01 0.00000E+00
 -1        59-7.07107E-01-7.07107E-01 0.00000E+00
 -1        61-7.07107E-01-7.07107E-01 0.00000E+00
 -1        64 7.07107E-01 7.07107E-01 0.00000E+00
 -1        66 7.07107E-01 7.07107E-01 0.00000E+00
 -1        68 7.07107E-01 7.07107E-01 0.00000E+00
 -1        70 7.07107E-01 7.07107E-01 0.00000E+00
 -1        72 7.07107E-01 7.07107E-01 0.00000E+00
 -1        74 7.07107E-01 7.07107E-01 0.00000E+00
 -1        76 7.07107E-01 7.07107E-01 0.00000E+00
 -1        79-7.07107E-01 7.07107E-01 0.00000E+00
 -1        81-7.07107E-01 7.07107E-01 0.00000E+00
 -1        83-7.07107E-01 7.07107E-01 0.00000E+00
 -1        85-7.07107E-01 7.07107E-01 0.00000E+00
 -1        87-7.07107E-01 7.07107E-01 0.00000E+00
 -1        89-7.07107E-01 7.07107E-01 0.00000E+00
 -1        91-7.07107E-01 7.07107E-01 0.00000E+00
 -1        95 0.00000E+00 0.00000E+00 0.00000E+00
 -1       100 0.00000E+00 0.00000E+00 1.00000E+00
 -1       105 0.00000E+00-1.00000E+00 0.00000E+00
 -1       109 0.00000E+00-1.00000E+00 0.00000E+00
 -1       113 0.00000E+00-1.00000E+00 0.00000E+00
 -1       117 0.00000E+00-1.00000E+00 0.00000E+00
 -1       121 0.00000E+00-1.00000E+00 0.00000E+00
 -1       125 0.00000E+00-1.00000E+00 0.00000E+00
 -1       129 0.00000E+00-1.00000E+00 0.00000E+00
 -1       134 1.00000E+00 0.00000E+00 0.00000E+00
 -1       138 1.00000E+00 0.00000E+00 0.00000E+00
 -1       142 1.00000E+00 0.00000E+00 0.00000E+00
 -1       146 1.00000E+00 0.00000E+00 0.00000E+00
 -1       150 1.00000E+00 0.00000E+00 0.00000E+00
 -1       154 1.00000E+00 0.00000E+00 0.00000E+00
 -1       158 1.00000E+00 0.00000E+00 0.00000E+00
 -1       163 0.00000E+00 1.00000E+00 0.00000E+00
 -1       167 0.00000E+00 1.00000E+00 0.00000E+00
 -1       171 0.00000E+00 1.00000E+00 0.00000E+00
 -1       175 0.00000E+00 1.00000E+00 0.00000E+00
 -1       179 0.00000E+00 1.00000E+00 0.00000E+00
 -1       183 0.00000E+00 1.00000E+00 0.00000E+00
 -1       187 0.00000E+00 1.00000E+00 0.00000E+00
 -1       192-1.00000E+00 0.00000E+00 0.00000E+00
 -1       196-1.00000E+00 0.00000E+00 0.00000E+00
 -1       200-1.00000E+00 0.00000E+00 0.00000E+00
 -1       204-1.00000E+00 0.00000E+00 0.00000E+00
 -1       208-1.00000E+00 0.00000E+00 0.00000E+00
 -1       212-1.00000E+00 0.00000E+00 0.00000E+00
 -1       216-1.00000E+00 0.00000E+00 0.00000E+00
 -1       222 0.00000E+00 0.00000E+00 0.00000E+00
 -1       228 0.00000E+00 0.00000E+00 0.00000E+00
 -1       234 0.00000E+00 0.00000E+00 0.00000E+00
 -1       240 0.00000E+00 0.00000E+00 0.00000E+00
 -1       246 0.00000E+00 0.00000E+00 0.00000E+00
 -1       252 0.00000E+00 0.00000E+00 0.00000E+00
 -1       258 0.00000E+00 0.00000E+00 0.00000E+00
 -3
    1PSTEP                         2           1           2          
  100CL  112 15717.62535          81                     3   12           1
 -4  SENFREQ     2    1
 -5  DFDN        1    1    1    0
 -5  DFDNFIL     1    1    2    0
 -1         1 0.00000E+00 0.00000E+00
 -1         2 0.00000E+00 0.00000E+00
 -1         3 0.00000E+00 0.00000E+00
 -1         4 0.00000E+00 0.00000E+00
 -1         5-1.71428E+09-3.91531E-01
 -1         6-1.71426E+09-3.91531E-01
 -1         7-1.71427E+09-3.91530E-01
 -1         8-1.71427E+09-3.91531E-01
 -1        10 0.00000E+00 0.00000E+00
 -1        13 0.00000E+00 0.00000E+00
 -1        16 0.00000E+00 0.00000E+00
 -1        19 0.00000E+00 0.00000E+00
 -1        22-2.13986E+09-3.93632E-01
 -1        25-2.12715E+09-3.96136E-01
 -1        28-2.13986E+09-3.93631E-01
 -1        31-2.12716E+09-3.96137E-01
 -1        34 6.21831E+09 9.72169E-01
 -1        36 2.03402E+09 5.82730E-01
 -1        38 1.06404E+09 2.23450E-01
 -1        40 2.90695E+08 5.68936E-02
 -1        42-3.55140E+08-8.77360E-02
 -1        44-9.52409E+08-2.26536E-01
 -1        46-1.58088E+09-3.43713E-01
 -1        49-1.58088E+09-3.43713E-01
 -1        51-9.52408E+08-2.26536E-01
 -1        53-3.55143E+08-8.77361E-02
 -1        55 2.90695E+08 5.68935E-02
 -1        57 1.06404E+09 2.23450E-01
 -1        59 2.03402E+09 5.82729E-01
 -1        61 6.21831E+09 9.72169E-01
 -1        64 6.21831E+09 9.72169E-01
 -1        66 2.03402E+09 5.82730E-01
 -1        68 1.06404E+09 2.23451E-01
 -1        70 2.90696E+08 5.68937E-02
 -1        72-3.55139E+08-8.77358E-02
 -1        74-9.52408E+08-2.26536E-01
 -1        76-1.58087E+09-3.43712E-01
 -1        79 6.21831E+09 9.72169E-01
 -1        81 2.03402E+09 5.82730E-01
 -1        83 1.06404E+09 2.23450E-01
 -1        85 2.90694E+08 5.68936E-02
 -1        87-3.55144E+08-8.77360E-02
 -1        89-9.52411E+08-2.26536E-01
 -1        91-1.58088E+09-3.43713E-01
 -1        95 0.00000E+00 0.00000E+00
 -1       100-3.22867E+09-4.00089E-01
 -1       105 2.68829E+09 9.45616E-01
 -1       109 9.80927E+08 5.77715E-01
 -1       113 4.37093E+08 2.20043E-01
 -1       117-9.52119E+07 5.49061E-02
 -1       121-6.83384E+08-8.92316E-02
 -1       125-1.38031E+09-2.28312E-01
 -1       129-2.22579E+09-3.45718E-01
 -1       134 1.09801E+10 1.00000E+00
 -1       138 3.46176E+09 6.04333E-01
 -1       142 1.83092E+09 2.30598E-01
 -1       146 5.59574E+08 5.98493E-02
 -1       150-4.54797E+08-8.77714E-02
 -1       154-1.34245E+09-2.28747E-01
 -1       158-2.24103E+09-3.46302E-01
 -1       163 2.68829E+09 9.45616E-01
 -1       167 9.80927E+08 5.77715E-01
 -1       171 4.37094E+08 2.20043E-01
 -1       175-9.52076E+07 5.49062E-02
 -1       179-6.83381E+08-8.92315E-02
 -1       183-1.38031E+09-2.28312E-01
 -1       187-2.22577E+09-3.45718E-01
 -1       192 1.09801E+10 1.00000E+00
 -1       196 3.46176E+09 6.04333E-01
 -1       200 1.83092E+09 2.30598E-01
 -1       204 5.59573E+08 5.98492E-02
 -1       208-4.54802E+08-8.77715E-02
 -1       212-1.34246E+09-2.28747E-01
 -1       216-2.24104E+09-3.46303E-01
 -1       222 0.00000E+00 0.00000E+00
 -1       228 0.00000E+00 0.00000E+00
 -1       234 0.00000E+00 0.00000E+00
 -1       240 0.00000E+00 0.00000E+00
 -1       246 0.00000E+00 0.00000E+00
 -1       252 0.00000E+00 0.00000E+00
 -1       258 0.00000E+00 0.00000E+00
 -3
    1PSTEP                         3           1           2          
  100CL  113 21366.30468          81                     3   13           1
 -4  SENFREQ     2    1
 -5  DFDN        1    1    1    0
 -5  DFDNFIL     1    1    2    0
 -1         1 0.00000E+00 0.00000E+00
 -1         2 0.00000E+00 0.00000E+00
 -1         3 0.00000E+00 0.00000E+00
 -1         4 0.00000E+00 0.00000E+00
 -1         5-3.14112E+09-3.92260E-01
 -1         6-3.14112E+09-3.92260E-01
 -1         7-3.14112E+09-3.92260E-01
 -1         8-3.14112E+09-3.92260E-01
 -1        10 0.00000E+00 0.00000E+00
 -1        13 0.00000E+00 0.00000E+00
 -1        16 0.00000E+00 0.00000E+00
 -1        19 0.00000E+00 0.00000E+00
 -1        22-3.94532E+09-3.94463E-01
 -1        25-3.86134E+09-3.96692E-01
 -1        28-3.94532E+09-3.94463E-01
 -1        31-3.86134E+09-3.96692E-01
 -1        34 1.06625E+10 9.68065E-01
 -1        36 3.62232E+09 5.73075E-01
 -1        38 1.88195E+09 2.20936E-01
 -1        40 4.97843E+08 5.48248E-02
 -1        42-6.71916E+08-8.98250E-02
 -1        44-1.76260E+09-2.28809E-01
 -1        46-2.90865E+09-3.45334E-01
 -1        49-2.90865E+09-3.45334E-01
 -1        51-1.76260E+09-2.28809E-01
 -1        53-6.71918E+08-8.98251E-02
 -1        55 4.97842E+08 5.48248E-02
 -1        57 1.88195E+09 2.20936E-01
 -1        59 3.62232E+09 5.73075E-01
 -1        61 1.06625E+10 9.68065E-01
 -1        64 1.06625E+10 9.68065E-01
 -1        66 3.62232E+09 5.73075E-01
 -1        68 1.88195E+09 2.20936E-01
 -1        70 4.97843E+08 5.48249E-02
 -1        72-6.71917E+08-8.98249E-02
 -1        74-1.76259E+09-2.28809E-01
 -1        76-2.90865E+09-3.45334E-01
 -1        79 1.06625E+10 9.68065E-01
 -1        81 3.62232E+09 5.73075E-01
 -1        83 1.88195E+09 2.20936E-01
 -1        85 4.97842E+08 5.48248E-02
 -1        87-6.71917E+08-8.98250E-02
 -1        89-1.76259E+09-2.28809E-01
 -1        91-2.90865E+09-3.45334E-01
 -1        95 0.00000E+00 0.00000E+00
 -1       100-5.88674E+09-4.00698E-01
 -1       105 2.24957E+10 1.00000E+00
 -1       109 7.05395E+09 5.86138E-01
 -1       113 3.74047E+09 2.26309E-01
 -1       117 1.20095E+09 5.70371E-02
 -1       121-7.91203E+08-8.98062E-02
 -1       125-2.48157E+09-2.30316E-01
 -1       129-4.14062E+09-3.47439E-01
 -1       134 4.45255E+09 9.12938E-01
 -1       138 1.57469E+09 5.66609E-01
 -1       142 6.75299E+08 2.14705E-01
 -1       146-2.35620E+08 5.13365E-02
 -1       150-1.27968E+09-9.22191E-02
 -1       154-2.54042E+09-2.31465E-01
 -1       158-4.07498E+09-3.47760E-01
 -1       163 2.24957E+10 1.00000E+00
 -1       167 7.05395E+09 5.86138E-01
 -1       171 3.74047E+09 2.26309E-01
 -1       175 1.20095E+09 5.70371E-02
 -1       179-7.91199E+08-8.98061E-02
 -1       183-2.48156E+09-2.30316E-01
 -1       187-4.14061E+09-3.47439E-01
 -1       192 4.45255E+09 9.12938E-01
 -1       196 1.57469E+09 5.66609E-01
 -1       200 6.75298E+08 2.14705E-01
 -1       204-2.35622E+08 5.13365E-02
 -1       208-1.27968E+09-9.22191E-02
 -1       212-2.54042E+09-2.31465E-01
 -1       216-4.07498E+09-3.47760E-01
 -1       222 0.00000E+00 0.00000E+00
 -1       228 0.00000E+00 0.00000E+00
 -1       234 0.00000E+00 0.00000E+00
 -1       240 0.00000E+00 0.00000E+00
 -1       246 0.00000E+00 0.00000E+00
 -1       252 0.00000E+00 0.00000E+00
 -1       258 0.00000E+00 0.00000E+00
 -3
    1PSTEP                         4           1           2          
  100CL  114 93946.12418          81                     3   14           1
 -4  SENFREQ     2    1
 -5  DFDN        1    1    1    0
 -5  DFDNFIL     1    1    2    0
 -1         1 0.00000E+00 0.00000E+00
 -1         2 0.00000E+00 0.00000E+00
 -1         3 0.00000E+00 0.00000E+00
 -1         4 0.00000E+00 0.00000E+00
 -1         5-6.80177E+10-4.90837E-01
 -1         6-6.80177E+10-4.90837E-01
 -1         7-6.80177E+10-4.90837E-01
 -1         8-6.80177E+10-4.90837E-01
 -1        10 0.00000E+00 0.00000E+00
 -1        13 0.00000E+00 0.00000E+00
 -1        16 0.00000E+00 0.00000E+00
 -1        19 0.00000E+00 0.00000E+00
 -1        22-7.39565E+10-4.93929E-01
 -1        25-4.51246E+10-4.84117E-01
 -1        28-7.39565E+10-4.93929E-01
 -1        31-4.51246E+10-4.84117E-01
 -1        34 1.62113E+11 9.96180E-01
 -1        36 6.73625E+10 6.43663E-01
 -1        38 3.82199E+10 2.78997E-01
 -1        40 3.07516E+09 2.20037E-02
 -1        42-3.21834E+10-2.37736E-01
 -1        44-6.21587E+10-4.58469E-01
 -1        46-8.23177E+10-5.34112E-01
 -1        49-8.23177E+10-5.34112E-01
 -1        51-6.21587E+10-4.58469E-01
 -1        53-3.21834E+10-2.37736E-01
 -1        55 3.07515E+09 2.20037E-02
 -1        57 3.82199E+10 2.78997E-01
 -1        59 6.73625E+10 6.43663E-01
 -1        61 1.62113E+11 9.96180E-01
 -1        64 1.62113E+11 9.96180E-01
 -1        66 6.73625E+10 6.43663E-01
 -1        68 3.82199E+10 2.78997E-01
 -1        70 3.07516E+09 2.20038E-02
 -1        72-3.21833E+10-2.37736E-01
 -1        74-6.21587E+10-4.58469E-01
 -1        76-8.23177E+10-5.34112E-01
 -1        79 1.62113E+11 9.96180E-01
 -1        81 6.73625E+10 6.43663E-01
 -1        83 3.82199E+10 2.78997E-01
 -1        85 3.07516E+09 2.20038E-02
 -1        87-3.21833E+10-2.37736E-01
 -1        89-6.21587E+10-4.58469E-01
 -1        91-8.23177E+10-5.34112E-01
 -1        95 0.00000E+00 0.00000E+00
 -1       100-2.91976E+10-4.83549E-01
 -1       105 1.48288E+11 9.87293E-01
 -1       109 3.35017E+10 6.38488E-01
 -1       113 5.02312E+09 2.72023E-01
 -1       117-3.20769E+10 1.50396E-02
 -1       121-6.92540E+10-2.44752E-01
 -1       125-1.00867E+11-4.65539E-01
 -1       129-1.22511E+11-5.39694E-01
 -1       134 2.14455E+11 1.00000E+00
 -1       138 1.10617E+11 6.63130E-01
 -1       142 7.65535E+10 2.90969E-01
 -1       146 3.52273E+10 3.29655E-02
 -1       150-5.96017E+09-2.27826E-01
 -1       154-4.09552E+10-4.49425E-01
 -1       158-6.40756E+10-5.22777E-01
 -1       163 1.48288E+11 9.87293E-01
 -1       167 3.35017E+10 6.38488E-01
 -1       171 5.02312E+09 2.72023E-01
 -1       175-3.20769E+10 1.50396E-02
 -1       179-6.92539E+10-2.44752E-01
 -1       183-1.00867E+11-4.65539E-01
 -1       187-1.22510E+11-5.39694E-01
 -1       192 2.14455E+11 1.00000E+00
 -1       196 1.10617E+11 6.63130E-01
 -1       200 7.65535E+10 2.90969E-01
 -1       204 3.52273E+10 3.29655E-02
 -1       208-5.96017E+09-2.27826E-01
 -1       212-4.09552E+10-4.49425E-01
 -1       216-6.40756E+10-5.22777E-01
 -1       222 0.00000E+00 0.00000E+00
 -1       228 0.00000E+00 0.00000E+00
 -1       234 0.00000E+00 0.00000E+00
 -1       240 0.00000E+00 0.00000E+00
 -1       246 0.00000E+00 0.00000E+00
 -1       252 0.00000E+00 0.00000E+00
 -1       258 0.00000E+00 0.00000E+00
 -3
    1PSTEP                         5           1           2          
  100CL  115 94079.45572          81                     3   15           1
 -4  SENFREQ     2    1
 -5  DFDN        1    1    1    0
 -5  DFDNFIL     1    1    2    0
 -1         1 0.00000E+00 0.00000E+00
 -1         2 0.00000E+00 0.00000E+00
 -1         3 0.00000E+00 0.00000E+00
 -1         4 0.00000E+00 0.00000E+00
 -1         5-4.93282E+10-9.80035E-01
 -1         6-4.93282E+10-9.80035E-01
 -1         7-4.93282E+10-9.80035E-01
 -1         8-4.93282E+10-9.80035E-01
 -1        10 0.00000E+00 0.00000E+00
 -1        13 0.00000E+00 0.00000E+00
 -1        16 0.00000E+00 0.00000E+00
 -1        19 0.00000E+00 0.00000E+00
 -1        22-6.21373E+10-9.82543E-01
 -1        25-6.40008E+10-9.86187E-01
 -1        28-6.21373E+10-9.82543E-01
 -1        31-6.40009E+10-9.86187E-01
 -1        34 6.25074E+10 8.00026E-01
 -1        36-6.21533E+09 2.78879E-01
 -1        38 9.18146E+09 1.61401E-01
 -1        40 3.39516E+10 5.23648E-01
 -1        42 3.95311E+10 6.54030E-01
 -1        44 2.22093E+10 3.26970E-01
 -1        46-1.55978E+10-4.27462E-01
 -1        49-1.55978E+10-4.27462E-01
 -1        51 2.22093E+10 3.26970E-01
 -1        53 3.95311E+10 6.54030E-01
 -1        55 3.39516E+10 5.23648E-01
 -1        57 9.18145E+09 1.61401E-01
 -1        59-6.21533E+09 2.78879E-01
 -1        61 6.25074E+10 8.00026E-01
 -1        64 6.25074E+10 8.00026E-01
 -1        66-6.21533E+09 2.78879E-01
 -1        68 9.18146E+09 1.61401E-01
 -1        70 3.39516E+10 5.23648E-01
 -1        72 3.95311E+10 6.54030E-01
 -1        74 2.22093E+10 3.26970E-01
 -1        76-1.55978E+10-4.27462E-01
 -1        79 6.25074E+10 8.00026E-01
 -1        81-6.21533E+09 2.78879E-01
 -1        83 9.18145E+09 1.61401E-01
 -1        85 3.39516E+10 5.23648E-01
 -1        87 3.95311E+10 6.54030E-01
 -1        89 2.22093E+10 3.26970E-01
 -1        91-1.55978E+10-4.27462E-01
 -1        95 0.00000E+00 0.00000E+00
 -1       100-1.09413E+11-1.00000E+00
 -1       105 3.23058E+10 7.72995E-01
 -1       109-1.05756E+10 2.79381E-01
 -1       113-2.47285E+10 1.45128E-01
 -1       117-2.00291E+10 4.95720E-01
 -1       121-1.34983E+09 6.31272E-01
 -1       125 9.12482E+09 3.17226E-01
 -1       129-2.09225E+10-4.30657E-01
 -1       134 1.04371E+11 8.09149E-01
 -1       138-1.17569E+10 3.01153E-01
 -1       142 2.56448E+10 1.81784E-01
 -1       146 7.26148E+10 5.55359E-01
 -1       150 7.59364E+10 6.81298E-01
 -1       154 3.78716E+10 3.35556E-01
 -1       158-2.35467E+10-4.34534E-01
 -1       163 3.23058E+10 7.72995E-01
 -1       167-1.05756E+10 2.79381E-01
 -1       171-2.47285E+10 1.45128E-01
 -1       175-2.00291E+10 4.95720E-01
 -1       179-1.34983E+09 6.31272E-01
 -1       183 9.12483E+09 3.17226E-01
 -1       187-2.09225E+10-4.30657E-01
 -1       192 1.04370E+11 8.09149E-01
 -1       196-1.17569E+10 3.01153E-01
 -1       200 2.56448E+10 1.81784E-01
 -1       204 7.26148E+10 5.55359E-01
 -1       208 7.59364E+10 6.81298E-01
 -1       212 3.78716E+10 3.35556E-01
 -1       216-2.35467E+10-4.34534E-01
 -1       222 0.00000E+00 0.00000E+00
 -1       228 0.00000E+00 0.00000E+00
 -1       234 0.00000E+00 0.00000E+00
 -1       240 0.00000E+00 0.00000E+00
 -1       246 0.00000E+00 0.00000E+00
 -1       252 0.00000E+00 0.00000E+00
 -1       258 0.00000E+00 0.00000E+00
 -3
    1PSTEP                         6           1           2          
  100CL  116 119778.3087          81                     3   16           1
 -4  SENFREQ     2    1
 -5  DFDN        1    1    1    0
 -5  DFDNFIL     1    1    2    0
 -1         1 0.00000E+00 0.00000E+00
 -1         2 0.00000E+00 0.00000E+00
 -1         3 0.00000E+00 0.00000E+00
 -1         4 0.00000E+00 0.00000E+00
 -1         5-7.75593E+10-9.84899E-01
 -1         6-7.75593E+10-9.84899E-01
 -1         7-7.75593E+10-9.84899E-01
 -1         8-7.75593E+10-9.84899E-01
 -1        10 0.00000E+00 0.00000E+00
 -1        13 0.00000E+00 0.00000E+00
 -1        16 0.00000E+00 0.00000E+00
 -1        19 0.00000E+00 0.00000E+00
 -1        22-1.05492E+11-9.90891E-01
 -1        25-8.93448E+10-9.84582E-01
 -1        28-1.05492E+11-9.90891E-01
 -1        31-8.93448E+10-9.84582E-01
 -1        34 9.49259E+10 8.56512E-01
 -1        36-6.09364E+09 3.02385E-01
 -1        38 1.05947E+10 1.38018E-01
 -1        40 4.30922E+10 4.50567E-01
 -1        42 5.24877E+10 5.70897E-01
 -1        44 2.91565E+10 2.58575E-01
 -1        46-2.79133E+10-4.63180E-01
 -1        49-2.79133E+10-4.63180E-01
 -1        51 2.91564E+10 2.58575E-01
 -1        53 5.24877E+10 5.70897E-01
 -1        55 4.30922E+10 4.50567E-01
 -1        57 1.05947E+10 1.38018E-01
 -1        59-6.09363E+09 3.02385E-01
 -1        61 9.49259E+10 8.56512E-01
 -1        64 9.49259E+10 8.56512E-01
 -1        66-6.09363E+09 3.02385E-01
 -1        68 1.05947E+10 1.38018E-01
 -1        70 4.30922E+10 4.50567E-01
 -1        72 5.24877E+10 5.70897E-01
 -1        74 2.91565E+10 2.58575E-01
 -1        76-2.79133E+10-4.63180E-01
 -1        79 9.49259E+10 8.56512E-01
 -1        81-6.09363E+09 3.02385E-01
 -1        83 1.05947E+10 1.38018E-01
 -1        85 4.30922E+10 4.50567E-01
 -1        87 5.24877E+10 5.70897E-01
 -1        89 2.91565E+10 2.58575E-01
 -1        91-2.79133E+10-4.63180E-01
 -1        95 0.00000E+00 0.00000E+00
 -1       100-1.62954E+11-1.00000E+00
 -1       105 1.77650E+11 8.77834E-01
 -1       109-1.18077E+10 3.10141E-01
 -1       113 4.99233E+10 1.53066E-01
 -1       117 1.24105E+11 4.76613E-01
 -1       121 1.24954E+11 5.93408E-01
 -1       125 5.70185E+10 2.66546E-01
 -1       129-4.55486E+10-4.67406E-01
 -1       134 6.27324E+10 8.01469E-01
 -1       138-1.36296E+10 3.11980E-01
 -1       142-4.27529E+10 1.11644E-01
 -1       146-3.91555E+10 4.02416E-01
 -1       150-8.56340E+09 5.30362E-01
 -1       154 1.09292E+10 2.39557E-01
 -1       158-3.30595E+10-4.68173E-01
 -1       163 1.77650E+11 8.77834E-01
 -1       167-1.18077E+10 3.10141E-01
 -1       171 4.99233E+10 1.53066E-01
 -1       175 1.24105E+11 4.76613E-01
 -1       179 1.24954E+11 5.93408E-01
 -1       183 5.70185E+10 2.66546E-01
 -1       187-4.55486E+10-4.67406E-01
 -1       192 6.27324E+10 8.01469E-01
 -1       196-1.36296E+10 3.11980E-01
 -1       200-4.27529E+10 1.11644E-01
 -1       204-3.91555E+10 4.02416E-01
 -1       208-8.56340E+09 5.30362E-01
 -1       212 1.09292E+10 2.39557E-01
 -1       216-3.30595E+10-4.68173E-01
 -1       222 0.00000E+00 0.00000E+00
 -1       228 0.00000E+00 0.00000E+00
 -1       234 0.00000E+00 0.00000E+00
 -1       240 0.00000E+00 0.00000E+00
 -1       246 0.00000E+00 0.00000E+00
 -1       252 0.00000E+00 0.00000E+00
 -1       258 0.00000E+00 0.00000E+00
 -3
    1PSTEP                         7           1           2          
  100CL  117 164426.6391          81                     3   17           1
 -4  SENFREQ     2    1
 -5  DFDN        1    1    1    0
 -5  DFDNFIL     1    1    2    0
 -1         1 0.00000E+00 0.00000E+00
 -1         2 0.00000E+00 0.00000E+00
 -1         3 0.00000E+00 0.00000E+00
 -1         4 0.00000E+00 0.00000E+00