
 displacements (vx,vy,vz) for set NALL and time  0.1000000E-02

         1  0.000000E+00  0.000000E+00  0.000000E+00
         2 -6.445694E-04  0.000000E+00  0.000000E+00
         3 -6.445694E-04 -6.445694E-04  0.000000E+00
         4  8.965591E-17 -6.445694E-04  0.000000E+00
         5  4.441064E-11  4.441135E-11  1.185097E-02
         6 -6.445694E-04  4.441135E-11  1.185097E-02
         7 -6.445694E-04 -6.445694E-04  1.185097E-02
         8  4.441070E-11 -6.445694E-04  1.185097E-02
         9 -1.611423E-04  1.444200E-15  0.000000E+00
        10 -3.222847E-04  3.631746E-15  0.000000E+00
        11 -4.834270E-04  1.428690E-15  0.000000E+00
        12 -6.445694E-04 -1.611423E-04  0.000000E+00
        13 -6.445694E-04 -3.222847E-04  0.000000E+00
        14 -6.445694E-04 -4.834270E-04  0.000000E+00
        15 -4.834270E-04 -6.445694E-04  0.000000E+00
        16 -3.222847E-04 -6.445694E-04  0.000000E+00
        17 -1.611423E-04 -6.445694E-04  0.000000E+00
        18  1.467115E-15 -4.834270E-04  0.000000E+00
        19  3.620494E-15 -3.222847E-04  0.000000E+00
        20  1.409857E-15 -1.611423E-04  0.000000E+00
        21 -1.611423E-04  4.710624E-11  1.185097E-02
        22 -3.222847E-04  4.680558E-11  1.185097E-02
        23 -4.834270E-04  4.710626E-11  1.185097E-02
        24 -6.445694E-04 -1.611423E-04  1.185097E-02
        25 -6.445694E-04 -3.222847E-04  1.185097E-02
        26 -6.445694E-04 -4.834270E-04  1.185097E-02
        27 -4.834270E-04 -6.445694E-04  1.185097E-02
        28 -3.222847E-04 -6.445694E-04  1.185097E-02
        29 -1.611423E-04 -6.445694E-04  1.185097E-02
        30  4.710557E-11 -4.834270E-04  1.185097E-02
        31  4.680490E-11 -3.222847E-04  1.185097E-02
        32  4.710556E-11 -1.611423E-04  1.185097E-02
        33 -6.445694E-04  2.851241E-16  7.406858E-04
        34 -6.445694E-04 -6.075597E-15  1.481372E-03
        35 -6.445694E-04 -2.076316E-15  2.222058E-03
        36 -6.445694E-04 -1.386331E-15  2.962743E-03
        37 -6.445694E-04  1.934166E-14  3.703429E-03
        38 -6.445694E-04 -4.312359E-14  4.444115E-03
        39 -6.445694E-04 -4.138833E-14  5.184801E-03
        40 -6.445694E-04 -4.297283E-14  5.925487E-03
        41 -6.445694E-04  2.915040E-13  6.666173E-03
        42 -6.445694E-04 -4.203991E-13  7.406858E-03
        43 -6.445694E-04 -5.881506E-13  8.147544E-03
        44 -6.445694E-04 -7.388597E-13  8.888230E-03
        45 -6.445694E-04  4.357203E-12  9.628916E-03
        46 -6.445694E-04 -2.388555E-12  1.036960E-02
        47 -6.445694E-04 -1.093390E-11  1.111029E-02
        48 -1.093449E-11 -1.093382E-11  1.111029E-02
        49 -2.389067E-12 -2.388519E-12  1.036960E-02
        50  4.356818E-12  4.357282E-12  9.628916E-03
        51 -7.392050E-13 -7.387456E-13  8.888230E-03
        52 -5.884650E-13 -5.881146E-13  8.147544E-03
        53 -4.206325E-13 -4.204185E-13  7.406858E-03
        54  2.913793E-13  2.915327E-13  6.666173E-03
        55 -4.310650E-14 -4.293412E-14  5.925487E-03
        56 -4.152545E-14 -4.138922E-14  5.184801E-03
        57 -4.321524E-14 -4.313030E-14  4.444115E-03
        58  1.924694E-14  1.936890E-14  3.703429E-03
        59 -1.473722E-15 -1.310197E-15  2.962743E-03
        60 -2.115447E-15 -2.049747E-15  2.222058E-03
        61 -6.028330E-15 -6.045352E-15  1.481372E-03
        62  2.987288E-16  3.139709E-16  7.406858E-04
        63 -6.445694E-04 -6.445694E-04  7.406858E-04
        64 -6.445694E-04 -6.445694E-04  1.481372E-03
        65 -6.445694E-04 -6.445694E-04  2.222058E-03
        66 -6.445694E-04 -6.445694E-04  2.962743E-03
        67 -6.445694E-04 -6.445694E-04  3.703429E-03
        68 -6.445694E-04 -6.445694E-04  4.444115E-03
        69 -6.445694E-04 -6.445694E-04  5.184801E-03
        70 -6.445694E-04 -6.445694E-04  5.925487E-03
        71 -6.445694E-04 -6.445694E-04  6.666173E-03
        72 -6.445694E-04 -6.445694E-04  7.406858E-03
        73 -6.445694E-04 -6.445694E-04  8.147544E-03
        74 -6.445694E-04 -6.445694E-04  8.888230E-03
        75 -6.445694E-04 -6.445694E-04  9.628916E-03
        76 -6.445694E-04 -6.445694E-04  1.036960E-02
        77 -6.445694E-04 -6.445694E-04  1.111029E-02
        78  3.202507E-16 -6.445694E-04  7.406858E-04
        79 -6.040920E-15 -6.445694E-04  1.481372E-03
        80 -2.106619E-15 -6.445694E-04  2.222058E-03
        81 -1.441517E-15 -6.445694E-04  2.962743E-03
        82  1.929134E-14 -6.445694E-04  3.703429E-03
        83 -4.322666E-14 -6.445694E-04  4.444115E-03
        84 -4.151340E-14 -6.445694E-04  5.184801E-03
        85 -4.307493E-14 -6.445694E-04  5.925487E-03
        86  2.913738E-13 -6.445694E-04  6.666173E-03
        87 -4.206242E-13 -6.445694E-04  7.406858E-03
        88 -5.884127E-13 -6.445694E-04  8.147544E-03
        89 -7.391593E-13 -6.445694E-04  8.888230E-03
        90  4.356846E-12 -6.445694E-04  9.628916E-03
        91 -2.389032E-12 -6.445694E-04  1.036960E-02
        92 -1.093448E-11 -6.445694E-04  1.111029E-02
        93 -3.222847E-04 -1.611423E-04  0.000000E+00
        94 -1.611423E-04 -3.222847E-04  0.000000E+00
        95 -3.222847E-04 -3.222847E-04  0.000000E+00
        96 -4.834270E-04 -3.222847E-04  0.000000E+00
        97 -3.222847E-04 -4.834270E-04  0.000000E+00
        98 -3.222847E-04 -1.611423E-04  1.185097E-02
        99 -1.611423E-04 -3.222847E-04  1.185097E-02
       100 -3.222847E-04 -3.222847E-04  1.185097E-02
       101 -4.834270E-04 -3.222847E-04  1.185097E-02
       102 -3.222847E-04 -4.834270E-04  1.185097E-02
       103 -3.222847E-04 -3.640680E-16  7.406858E-04
       104 -1.611423E-04 -4.530430E-15  1.481372E-03
       105 -3.222847E-04 -3.916129E-15  1.481372E-03
       106 -4.834270E-04 -4.566502E-15  1.481372E-03
       107 -3.222847E-04 -6.223350E-15  2.222058E-03
       108 -1.611423E-04  6.780094E-15  2.962743E-03
       109 -3.222847E-04  1.600179E-14  2.962743E-03
       110 -4.834270E-04  6.746456E-15  2.962743E-03
       111 -3.222847E-04  1.211071E-14  3.703429E-03
       112 -1.611423E-04 -2.614812E-14  4.444115E-03
       113 -3.222847E-04 -9.036211E-15  4.444115E-03
       114 -4.834270E-04 -2.615938E-14  4.444115E-03
       115 -3.222847E-04 -7.617607E-14  5.184801E-03
       116 -1.611423E-04  4.844407E-14  5.925487E-03
       117 -3.222847E-04  1.334088E-13  5.925487E-03
       118 -4.834270E-04  4.842795E-14  5.925487E-03
       119 -3.222847E-04  1.712117E-13  6.666173E-03
       120 -1.611423E-04 -2.094629E-13  7.406858E-03
       121 -3.222847E-04  3.967215E-14  7.406858E-03
       122 -4.834270E-04 -2.094702E-13  7.406858E-03
       123 -3.222847E-04 -8.889108E-13  8.147544E-03
       124 -1.611423E-04  3.550123E-13  8.888230E-03
       125 -3.222847E-04  1.325638E-12  8.888230E-03
       126 -4.834270E-04  3.549554E-13  8.888230E-03
       127 -3.222847E-04  2.491568E-12  9.628916E-03
       128 -1.611423E-04  2.322773E-12  1.036960E-02
       129 -3.222847E-04  7.427139E-12  1.036960E-02
       130 -4.834270E-04  2.322747E-12  1.036960E-02
       131 -3.222847E-04 -2.146104E-11  1.111029E-02
       132 -6.445694E-04 -3.222847E-04  7.406858E-04
       133 -6.445694E-04 -1.611423E-04  1.481372E-03
       134 -6.445694E-04 -3.222847E-04  1.481372E-03
       135 -6.445694E-04 -4.834270E-04  1.481372E-03
       136 -6.445694E-04 -3.222847E-04  2.222058E-03
       137 -6.445694E-04 -1.611423E-04  2.962743E-03
       138 -6.445694E-04 -3.222847E-04  2.962743E-03
       139 -6.445694E-04 -4.834270E-04  2.962743E-03
       140 -6.445694E-04 -3.222847E-04  3.703429E-03
       141 -6.445694E-04 -1.611423E-04  4.444115E-03
       142 -6.445694E-04 -3.222847E-04  4.444115E-03
       143 -6.445694E-04 -4.834270E-04  4.444115E-03
       144 -6.445694E-04 -3.222847E-04  5.184801E-03
       145 -6.445694E-04 -1.611423E-04  5.925487E-03
       146 -6.445694E-04 -3.222847E-04  5.925487E-03
       147 -6.445694E-04 -4.834270E-04  5.925487E-03
       148 -6.445694E-04 -3.222847E-04  6.666173E-03
       149 -6.445694E-04 -1.611423E-04  7.406858E-03
       150 -6.445694E-04 -3.222847E-04  7.406858E-03
       151 -6.445694E-04 -4.834270E-04  7.406858E-03
       152 -6.445694E-04 -3.222847E-04  8.147544E-03
       153 -6.445694E-04 -1.611423E-04  8.888230E-03
       154 -6.445694E-04 -3.222847E-04  8.888230E-03
       155 -6.445694E-04 -4.834270E-04  8.888230E-03
       156 -6.445694E-04 -3.222847E-04  9.628916E-03
       157 -6.445694E-04 -1.611423E-04  1.036960E-02
       158 -6.445694E-04 -3.222847E-04  1.036960E-02
       159 -6.445694E-04 -4.834270E-04  1.036960E-02
       160 -6.445693E-04 -3.222847E-04  1.111029E-02
       161 -3.222847E-04 -6.445694E-04  7.406858E-04
       162 -4.834270E-04 -6.445694E-04  1.481372E-03
       163 -3.222847E-04 -6.445694E-04  1.481372E-03
       164 -1.611423E-04 -6.445694E-04  1.481372E-03
       165 -3.222847E-04 -6.445694E-04  2.222058E-03
       166 -4.834270E-04 -6.445694E-04  2.962743E-03
       167 -3.222847E-04 -6.445694E-04  2.962743E-03
       168 -1.611423E-04 -6.445694E-04  2.962743E-03
       169 -3.222847E-04 -6.445694E-04  3.703429E-03
       170 -4.834270E-04 -6.445694E-04  4.444115E-03
       171 -3.222847E-04 -6.445694E-04  4.444115E-03
       172 -1.611423E-04 -6.445694E-04  4.444115E-03
       173 -3.222847E-04 -6.445694E-04  5.184801E-03
       174 -4.834270E-04 -6.445694E-04  5.925487E-03
       175 -3.222847E-04 -6.445694E-04  5.925487E-03
       176 -1.611423E-04 -6.445694E-04  5.925487E-03
       177 -3.222847E-04 -6.445694E-04  6.666173E-03
       178 -4.834270E-04 -6.445694E-04  7.406858E-03
       179 -3.222847E-04 -6.445694E-04  7.406858E-03
       180 -1.611423E-04 -6.445694E-04  7.406858E-03
       181 -3.222847E-04 -6.445694E-04  8.147544E-03
       182 -4.834270E-04 -6.445694E-04  8.888230E-03
       183 -3.222847E-04 -6.445694E-04  8.888230E-03
       184 -1.611423E-04 -6.445694E-04  8.888230E-03
       185 -3.222847E-04 -6.445694E-04  9.628916E-03
       186 -4.834270E-04 -6.445694E-04  1.036960E-02
       187 -3.222847E-04 -6.445694E-04  1.036960E-02
       188 -1.611423E-04 -6.445694E-04  1.036960E-02
       189 -3.222847E-04 -6.445693E-04  1.111029E-02
       190 -3.722982E-16 -3.222847E-04  7.406858E-04
       191 -4.547412E-15 -4.834270E-04  1.481372E-03
       192 -3.945818E-15 -3.222847E-04  1.481372E-03
       193 -4.559385E-15 -1.611423E-04  1.481372E-03
       194 -6.206823E-15 -3.222847E-04  2.222058E-03
       195  6.729883E-15 -4.834270E-04  2.962743E-03
       196  1.600491E-14 -3.222847E-04  2.962743E-03
       197  6.748555E-15 -1.611423E-04  2.962743E-03
       198  1.205123E-14 -3.222847E-04  3.703429E-03
       199 -2.623630E-14 -4.834270E-04  4.444115E-03
       200 -9.108258E-15 -3.222847E-04  4.444115E-03
       201 -2.624522E-14 -1.611423E-04  4.444115E-03
       202 -7.629762E-14 -3.222847E-04  5.184801E-03
       203  4.829410E-14 -4.834270E-04  5.925487E-03
       204  1.332550E-13 -3.222847E-04  5.925487E-03
       205  4.827286E-14 -1.611423E-04  5.925487E-03
       206  1.709798E-13 -3.222847E-04  6.666173E-03
       207 -2.097407E-13 -4.834270E-04  7.406858E-03
       208  3.936068E-14 -3.222847E-04  7.406858E-03
       209 -2.097654E-13 -1.611423E-04  7.406858E-03
       210 -8.892176E-13 -3.222847E-04  8.147544E-03
       211  3.546220E-13 -4.834270E-04  8.888230E-03
       212  1.325272E-12 -3.222847E-04  8.888230E-03
       213  3.546020E-13 -1.611423E-04  8.888230E-03
       214  2.491152E-12 -3.222847E-04  9.628916E-03
       215  2.322259E-12 -4.834270E-04  1.036960E-02
       216  7.426618E-12 -3.222847E-04  1.036960E-02
       217  2.322225E-12 -1.611423E-04  1.036960E-02
       218 -2.146167E-11 -3.222847E-04  1.111029E-02
       219 -3.222847E-04 -3.222847E-04  7.406858E-04
       220 -3.222847E-04 -1.611423E-04  1.481372E-03
       221 -1.611423E-04 -3.222847E-04  1.481372E-03
       222 -3.222847E-04 -3.222847E-04  1.481372E-03
       223 -4.834270E-04 -3.222847E-04  1.481372E-03
       224 -3.222847E-04 -4.834270E-04  1.481372E-03
       225 -3.222847E-04 -3.222847E-04  2.222058E-03
       226 -3.222847E-04 -1.611423E-04  2.962743E-03
       227 -1.611423E-04 -3.222847E-04  2.962743E-03
       228 -3.222847E-04 -3.222847E-04  2.962743E-03
       229 -4.834270E-04 -3.222847E-04  2.962743E-03
       230 -3.222847E-04 -4.834270E-04  2.962743E-03
       231 -3.222847E-04 -3.222847E-04  3.703429E-03
       232 -3.222847E-04 -1.611423E-04  4.444115E-03
       233 -1.611423E-04 -3.222847E-04  4.444115E-03
       234 -3.222847E-04 -3.222847E-04  4.444115E-03
       235 -4.834270E-04 -3.222847E-04  4.444115E-03
       236 -3.222847E-04 -4.834270E-04  4.444115E-03
       237 -3.222847E-04 -3.222847E-04  5.184801E-03
       238 -3.222847E-04 -1.611423E-04  5.925487E-03
       239 -1.611423E-04 -3.222847E-04  5.925487E-03
       240 -3.222847E-04 -3.222847E-04  5.925487E-03
       241 -4.834270E-04 -3.222847E-04  5.925487E-03
       242 -3.222847E-04 -4.834270E-04  5.925487E-03
       243 -3.222847E-04 -3.222847E-04  6.666173E-03
       244 -3.222847E-04 -1.611423E-04  7.406858E-03
       245 -1.611423E-04 -3.222847E-04  7.406858E-03
       246 -3.222847E-04 -3.222847E-04  7.406858E-03
       247 -4.834270E-04 -3.222847E-04  7.406858E-03
       248 -3.222847E-04 -4.834270E-04  7.406858E-03
       249 -3.222847E-04 -3.222847E-04  8.147544E-03
       250 -3.222847E-04 -1.611423E-04  8.888230E-03
       251 -1.611423E-04 -3.222847E-04  8.888230E-03
       252 -3.222847E-04 -3.222847E-04  8.888230E-03
       253 -4.834270E-04 -3.222847E-04  8.888230E-03
       254 -3.222847E-04 -4.834270E-04  8.888230E-03
       255 -3.222847E-04 -3.222847E-04  9.628916E-03
       256 -3.222847E-04 -1.611423E-04  1.036960E-02
       257 -1.611423E-04 -3.222847E-04  1.036960E-02
       258 -3.222847E-04 -3.222847E-04  1.036960E-02
       259 -4.834270E-04 -3.222847E-04  1.036960E-02
       260 -3.222847E-04 -4.834270E-04  1.036960E-02
       261 -3.222847E-04 -3.222847E-04  1.111029E-02

 stresses (elem, integ.pnt.,sxx,syy,szz,sxy,sxz,syz) for set EALL and time  0.1000000E-02

         1   1  2.415458E-06  2.415458E-06  1.001286E+02 -1.145444E-10  4.603411E-10  4.605627E-10
         1   2  2.414357E-06  2.414768E-06  1.001286E+02 -8.664022E-11  2.362873E-10 -3.436950E-11
         1   3  2.414812E-06  2.414401E-06  1.001286E+02 -8.597915E-11 -3.520244E-11  2.346972E-10
         1   4  2.415041E-06  2.415051E-06  1.001286E+02 -1.208893E-10 -1.230478E-10 -1.236670E-10
         1   5  2.413251E-06  2.413251E-06  1.001286E+02  3.719406E-10  4.349937E-10  4.349587E-10
         1   6  2.416651E-06  2.415899E-06  1.001286E+02  2.933230E-10 -2.608363E-10  2.237018E-10
         1   7  2.415898E-06  2.416650E-06  1.001286E+02  2.933117E-10  2.222467E-10 -2.582932E-10
         1   8  2.414997E-06  2.414997E-06  1.001286E+02  3.039377E-10 -3.054193E-10 -3.079959E-10
         2   1  2.414366E-06  2.414767E-06  1.001286E+02  8.585510E-11 -2.398530E-10 -3.475125E-11
         2   2  2.415418E-06  2.415418E-06  1.001286E+02  1.174254E-10 -4.606534E-10  4.622448E-10
         2   3  2.415041E-06  2.415041E-06  1.001286E+02  1.222543E-10  1.249367E-10 -1.223995E-10
         2   4  2.414823E-06  2.414412E-06  1.001286E+02  8.679585E-11  3.491987E-11  2.395826E-10
         2   5  2.416659E-06  2.415896E-06  1.001286E+02 -2.966303E-10  2.593818E-10  2.225418E-10
         2   6  2.413285E-06  2.413285E-06  1.001286E+02 -3.733911E-10 -4.342267E-10  4.334490E-10
         2   7  2.414996E-06  2.414996E-06  1.001286E+02 -3.023880E-10  3.071341E-10 -3.077935E-10
         2   8  2.415944E-06  2.416707E-06  1.001286E+02 -2.983543E-10 -2.235853E-10 -2.578672E-10
         3   1  2.414765E-06  2.414354E-06  1.001286E+02  8.516281E-11 -3.521240E-11 -2.389321E-10
         3   2  2.415041E-06  2.415041E-06  1.001286E+02  1.223022E-10 -1.225823E-10  1.242382E-10
         3   3  2.415418E-06  2.415418E-06  1.001286E+02  1.165076E-10  4.576713E-10 -4.584664E-10
         3   4  2.414356E-06  2.414767E-06  1.001286E+02  8.662373E-11  2.376056E-10  3.410777E-11
         3   5  2.415890E-06  2.416652E-06  1.001286E+02 -2.947269E-10  2.226769E-10  2.592741E-10
         3   6  2.414997E-06  2.414997E-06  1.001286E+02 -3.010571E-10 -3.051427E-10  3.061403E-10
         3   7  2.413276E-06  2.413286E-06  1.001286E+02 -3.731050E-10  4.340617E-10 -4.363371E-10
         3   8  2.416680E-06  2.415937E-06  1.001286E+02 -2.987049E-10 -2.603820E-10 -2.210733E-10
         4   1  2.415041E-06  2.415031E-06  1.001286E+02 -1.202238E-10  1.258454E-10  1.239507E-10
         4   2  2.414833E-06  2.414422E-06  1.001286E+02 -8.696719E-11  3.475624E-11 -2.401559E-10
         4   3  2.414355E-06  2.414766E-06  1.001286E+02 -8.678544E-11 -2.361801E-10  3.349845E-11
         4   4  2.415439E-06  2.415449E-06  1.001286E+02 -1.163187E-10 -4.595769E-10 -4.600662E-10
         4   5  2.414999E-06  2.414999E-06  1.001286E+02  3.017473E-10  3.073477E-10  3.064857E-10
         4   6  2.415905E-06  2.416658E-06  1.001286E+02  2.935186E-10 -2.237713E-10  2.607899E-10
         4   7  2.416680E-06  2.415937E-06  1.001286E+02  2.950325E-10  2.596503E-10 -2.214371E-10
         4   8  2.413281E-06  2.413281E-06  1.001286E+02  3.759972E-10 -4.341962E-10 -4.365321E-10
         5   1  2.415895E-06  2.415895E-06  1.001286E+02 -1.209750E-10 -7.356096E-10 -7.317959E-10
         5   2  2.415550E-06  2.415279E-06  1.001286E+02 -6.993783E-11 -7.695475E-10 -2.173869E-11
         5   3  2.415276E-06  2.415557E-06  1.001286E+02 -7.088910E-11 -2.045962E-11 -7.677260E-10
         5   4  2.415139E-06  2.415139E-06  1.001286E+02  5.272961E-11  5.746065E-11  5.756614E-11
         5   5  2.420377E-06  2.420367E-06  1.001286E+02 -5.127913E-10 -1.652637E-09 -1.649907E-09
         5   6  2.411188E-06  2.412362E-06  1.001286E+02 -5.280271E-10  1.296623E-09 -5.561518E-10
         5   7  2.412334E-06  2.411170E-06  1.001286E+02 -5.260819E-10 -5.546299E-10  1.296315E-09
         5   8  2.415713E-06  2.415723E-06  1.001286E+02 -6.661253E-10  1.218696E-09  1.219783E-09
         6   1  2.415498E-06  2.415237E-06  1.001286E+02  7.061796E-11  7.723548E-10 -2.149038E-11
         6   2  2.415891E-06  2.415901E-06  1.001286E+02  1.237684E-10  7.344737E-10 -7.332635E-10
         6   3  2.415140E-06  2.415140E-06  1.001286E+02 -4.954199E-11 -5.752397E-11  5.661144E-11
         6   4  2.415218E-06  2.415489E-06  1.001286E+02  6.991348E-11  1.924665E-11 -7.699788E-10
         6   5  2.411188E-06  2.412362E-06  1.001286E+02  5.291787E-10 -1.298876E-09 -5.554662E-10
         6   6  2.420414E-06  2.420414E-06  1.001286E+02  5.118738E-10  1.652519E-09 -1.648381E-09
         6   7  2.415715E-06  2.415725E-06  1.001286E+02  6.650265E-10 -1.220562E-09  1.219665E-09
         6   8  2.412285E-06  2.411101E-06  1.001286E+02  5.268747E-10  5.562642E-10  1.298627E-09
         7   1  2.415238E-06  2.415499E-06  1.001286E+02  6.926140E-11 -2.149488E-11  7.683098E-10
         7   2  2.415140E-06  2.415140E-06  1.001286E+02 -5.138059E-11  5.713743E-11 -5.666247E-11
         7   3  2.415844E-06  2.415833E-06  1.001286E+02  1.245248E-10 -7.354530E-10  7.327102E-10
         7   4  2.415545E-06  2.415284E-06  1.001286E+02  7.016783E-11 -7.693211E-10  1.986614E-11
         7   5  2.412333E-06  2.411159E-06  1.001286E+02  5.282196E-10 -5.551318E-10 -1.299964E-09
         7   6  2.415725E-06  2.415715E-06  1.001286E+02  6.669263E-10  1.218581E-09 -1.219751E-09
         7   7  2.420373E-06  2.420363E-06  1.001286E+02  5.103840E-10 -1.649174E-09  1.651876E-09
         7   8  2.411209E-06  2.412383E-06  1.001286E+02  5.282388E-10  1.297871E-09  5.550696E-10
         8   1  2.415152E-06  2.415152E-06  1.001286E+02  5.291965E-11 -5.706509E-11 -5.692644E-11
         8   2  2.415223E-06  2.415484E-06  1.001286E+02 -6.958823E-11  1.994673E-11  7.700204E-10
         8   3  2.415546E-06  2.415286E-06  1.001286E+02 -7.157982E-11  7.724452E-10  2.037096E-11
         8   4  2.415873E-06  2.415873E-06  1.001286E+02 -1.214470E-10  7.328379E-10  7.332158E-10
         8   5  2.415690E-06  2.415690E-06  1.001286E+02 -6.677030E-10 -1.220467E-09 -1.220415E-09
         8   6  2.412282E-06  2.411118E-06  1.001286E+02 -5.279323E-10  5.571393E-10 -1.300169E-09
         8   7  2.411149E-06  2.412333E-06  1.001286E+02 -5.266865E-10 -1.299505E-09  5.558072E-10
         8   8  2.420318E-06  2.420318E-06  1.001286E+02 -5.118409E-10  1.652930E-09  1.652689E-09
         9   1  2.411332E-06  2.411342E-06  1.001286E+02 -3.533898E-10  2.455972E-09  2.451649E-09
         9   2  2.414419E-06  2.415332E-06  1.001286E+02 -2.364822E-10  2.045907E-09 -5.088407E-10
         9   3  2.415286E-06  2.414363E-06  1.001286E+02 -2.372998E-10 -5.086669E-10  2.046086E-09
         9   4  2.414091E-06  2.414091E-06  1.001286E+02 -2.559357E-10 -4.358413E-10 -4.358729E-10
         9   5  2.403020E-06  2.403020E-06  1.001286E+02  2.618013E-09  4.374042E-09  4.373508E-09
         9   6  2.424000E-06  2.421191E-06  1.001286E+02  2.375253E-09 -5.069638E-09  3.405491E-09
         9   7  2.421204E-06  2.424004E-06  1.001286E+02  2.373875E-09  3.403996E-09 -5.071094E-09
         9   8  2.412995E-06  2.413005E-06  1.001286E+02  2.163785E-09 -3.578112E-09 -3.577320E-09
        10   1  2.414412E-06  2.415325E-06  1.001286E+02  2.369661E-10 -2.043763E-09 -5.089160E-10
        10   2  2.411379E-06  2.411379E-06  1.001286E+02  3.510174E-10 -2.457506E-09  2.453024E-09
        10   3  2.414091E-06  2.414091E-06  1.001286E+02  2.531388E-10  4.359713E-10 -4.360786E-10
        10   4  2.415337E-06  2.414414E-06  1.001286E+02  2.378795E-10  5.097138E-10  2.045176E-09
        10   5  2.423993E-06  2.421184E-06  1.001286E+02 -2.374490E-09  5.069408E-09  3.405367E-09
        10   6  2.403036E-06  2.403036E-06  1.001286E+02 -2.617364E-09 -4.372086E-09  4.372567E-09
        10   7  2.413006E-06  2.413006E-06  1.001286E+02 -2.163657E-09  3.578003E-09 -3.577065E-09
        10   8  2.421193E-06  2.424013E-06  1.001286E+02 -2.372019E-09 -3.404171E-09 -5.071218E-09
        11   1  2.415325E-06  2.414412E-06  1.001286E+02  2.380671E-10 -5.081147E-10 -2.041014E-09
        11   2  2.414091E-06  2.414081E-06  1.001286E+02  2.525545E-10 -4.363237E-10  4.358908E-10
        11   3  2.411380E-06  2.411380E-06  1.001286E+02  3.516510E-10  2.456746E-09 -2.456807E-09
        11   4  2.414420E-06  2.415333E-06  1.001286E+02  2.368141E-10  2.043873E-09  5.095452E-10
        11   5  2.421196E-06  2.424006E-06  1.001286E+02 -2.373483E-09  3.403851E-09  5.068647E-09
        11   6  2.413005E-06  2.413005E-06  1.001286E+02 -2.164060E-09 -3.578493E-09  3.577243E-09
        11   7  2.403027E-06  2.403027E-06  1.001286E+02 -2.616719E-09  4.369931E-09 -4.370335E-09
        11   8  2.423993E-06  2.421184E-06  1.001286E+02 -2.372776E-09 -5.070985E-09 -3.405203E-09
        12   1  2.414091E-06  2.414081E-06  1.001286E+02 -2.559832E-10  4.351211E-10  4.359146E-10
        12   2  2.415336E-06  2.414413E-06  1.001286E+02 -2.367710E-10  5.091751E-10 -2.042330E-09
        12   3  2.414409E-06  2.415312E-06  1.001286E+02 -2.370557E-10 -2.046235E-09  5.093094E-10
        12   4  2.411331E-06  2.411331E-06  1.001286E+02 -3.533755E-10 -2.456035E-09 -2.457726E-09
        12   5  2.412995E-06  2.412995E-06  1.001286E+02  2.165523E-09  3.578231E-09  3.577211E-09
        12   6  2.421136E-06  2.423946E-06  1.001286E+02  2.374830E-09 -3.405106E-09  5.068653E-09
        12   7  2.424032E-06  2.421223E-06  1.001286E+02  2.375221E-09  5.071966E-09 -3.405494E-09
        12   8  2.403002E-06  2.403002E-06  1.001286E+02  2.617223E-09 -4.370206E-09 -4.370733E-09
        13   1  2.423489E-06  2.423489E-06  1.001286E+02 -1.380594E-09 -4.429002E-09 -4.426787E-09
        13   2  2.418067E-06  2.417635E-06  1.001286E+02 -7.601129E-10 -4.707833E-09 -3.363984E-10
        13   3  2.417641E-06  2.418062E-06  1.001286E+02 -7.569805E-10 -3.375965E-10 -4.706888E-09
        13   4  2.417540E-06  2.417550E-06  1.001286E+02  6.873433E-11  7.829406E-10  7.828482E-10
        13   5  2.449802E-06  2.449802E-06  1.001286E+02 -1.237942E-09 -1.973781E-08 -1.974055E-08
        13   6  2.393615E-06  2.393164E-06  1.001286E+02 -3.033417E-09  1.697966E-08 -8.255547E-09
        13   7  2.393155E-06  2.393637E-06  1.001286E+02 -3.030670E-09 -8.254553E-09  1.697797E-08
        13   8  2.426440E-06  2.426440E-06  1.001286E+02 -4.317544E-09  1.357406E-08  1.357447E-08
        14   1  2.418069E-06  2.417637E-06  1.001286E+02  7.593640E-10  4.708767E-09 -3.362878E-10
        14   2  2.423542E-06  2.423542E-06  1.001286E+02  1.380374E-09  4.427723E-09 -4.427238E-09
        14   3  2.417541E-06  2.417541E-06  1.001286E+02 -7.018185E-11 -7.832842E-10  7.826891E-10
        14   4  2.417590E-06  2.418021E-06  1.001286E+02  7.585618E-10  3.357367E-10 -4.709390E-09
        14   5  2.393569E-06  2.393118E-06  1.001286E+02  3.034026E-09 -1.698030E-08 -8.255266E-09
        14   6  2.449811E-06  2.449811E-06  1.001286E+02  1.238096E-09  1.973849E-08 -1.973956E-08
        14   7  2.426411E-06  2.426411E-06  1.001286E+02  4.312655E-09 -1.357359E-08  1.357496E-08
        14   8  2.393108E-06  2.393579E-06  1.001286E+02  3.033972E-09  8.255288E-09  1.697969E-08
        15   1  2.417641E-06  2.418072E-06  1.001286E+02  7.587619E-10 -3.364303E-10  4.705844E-09
        15   2  2.417540E-06  2.417550E-06  1.001286E+02 -6.743018E-11  7.829486E-10 -7.832427E-10
        15   3  2.423540E-06  2.423540E-06  1.001286E+02  1.378151E-09 -4.426341E-09  4.425280E-09
        15   4  2.418058E-06  2.417646E-06  1.001286E+02  7.597340E-10 -4.707500E-09  3.372022E-10
        15   5  2.393107E-06  2.393578E-06  1.001286E+02  3.032166E-09 -8.254558E-09 -1.697738E-08
        15   6  2.426451E-06  2.426451E-06  1.001286E+02  4.313209E-09  1.357458E-08 -1.357414E-08
        15   7  2.449765E-06  2.449765E-06  1.001286E+02  1.235631E-09 -1.973957E-08  1.974122E-08
        15   8  2.393578E-06  2.393107E-06  1.001286E+02  3.033938E-09  1.698033E-08  8.256345E-09
        16   1  2.417541E-06  2.417541E-06  1.001286E+02  6.846856E-11 -7.839320E-10 -7.833959E-10
        16   2  2.417591E-06  2.418022E-06  1.001286E+02 -7.598846E-10  3.356707E-10  4.708612E-09
        16   3  2.418058E-06  2.417636E-06  1.001286E+02 -7.579446E-10  4.708719E-09  3.378777E-10
        16   4  2.423503E-06  2.423503E-06  1.001286E+02 -1.381017E-09  4.429084E-09  4.429279E-09
        16   5  2.426449E-06  2.426449E-06  1.001286E+02 -4.316592E-09 -1.357368E-08 -1.357460E-08
        16   6  2.393114E-06  2.393575E-06  1.001286E+02 -3.032542E-09  8.254933E-09 -1.698088E-08
        16   7  2.393616E-06  2.393155E-06  1.001286E+02 -3.032791E-09 -1.698054E-08  8.256054E-09
        16   8  2.449820E-06  2.449820E-06  1.001286E+02 -1.240222E-09  1.973663E-08  1.973807E-08
        17   1  2.381705E-06  2.381715E-06  1.001286E+02 -5.324477E-09  1.824877E-08  1.824770E-08
        17   2  2.407429E-06  2.414381E-06  1.001286E+02 -3.699308E-09  1.232596E-08 -5.057551E-09
        17   3  2.414368E-06  2.407426E-06  1.001286E+02 -3.699890E-09 -5.057522E-09  1.232409E-08
        17   4  2.399820E-06  2.399820E-06  1.001286E+02 -2.543829E-09 -5.619531E-09 -5.620649E-09
        17   5  2.345288E-06  2.345288E-06  1.001286E+02  1.809447E-08  5.261313E-08  5.261492E-08
        17   6  2.457872E-06  2.459761E-06  1.001286E+02  1.876288E-08 -6.212239E-08  4.172818E-08
        17   7  2.459782E-06  2.457913E-06  1.001286E+02  1.876100E-08  4.172711E-08 -6.211992E-08
        17   8  2.383261E-06  2.383261E-06  1.001286E+02  1.598593E-08 -3.885318E-08 -3.885220E-08
        18   1  2.407429E-06  2.414381E-06  1.001286E+02  3.700862E-09 -1.232704E-08 -5.058851E-09
        18   2  2.381744E-06  2.381744E-06  1.001286E+02  5.322892E-09 -1.824784E-08  1.824624E-08
        18   3  2.399824E-06  2.399824E-06  1.001286E+02  2.542613E-09  5.619940E-09 -5.619782E-09
        18   4  2.414377E-06  2.407425E-06  1.001286E+02  3.702975E-09  5.059304E-09  1.232604E-08
        18   5  2.457862E-06  2.459741E-06  1.001286E+02 -1.876327E-08  6.212410E-08  4.172781E-08
        18   6  2.345288E-06  2.345288E-06  1.001286E+02 -1.809489E-08 -5.261529E-08  5.261645E-08
        18   7  2.383262E-06  2.383252E-06  1.001286E+02 -1.598498E-08  3.885225E-08 -3.885383E-08
        18   8  2.459782E-06  2.457913E-06  1.001286E+02 -1.876187E-08 -4.172884E-08 -6.212399E-08
        19   1  2.414380E-06  2.407418E-06  1.001286E+02  3.702196E-09 -5.058175E-09 -1.232373E-08
        19   2  2.399821E-06  2.399821E-06  1.001286E+02  2.543180E-09 -5.619189E-09  5.620098E-09
        19   3  2.381706E-06  2.381706E-06  1.001286E+02  5.322666E-09  1.824526E-08 -1.824514E-08
        19   4  2.407417E-06  2.414379E-06  1.001286E+02  3.702045E-09  1.232662E-08  5.057782E-09
        19   5  2.459734E-06  2.457855E-06  1.001286E+02 -1.876174E-08  4.172779E-08  6.212251E-08
        19   6  2.383321E-06  2.383321E-06  1.001286E+02 -1.598452E-08 -3.885344E-08  3.885214E-08
        19   7  2.345265E-06  2.345255E-06  1.001286E+02 -1.809333E-08  5.261823E-08 -5.261817E-08
        19   8  2.457872E-06  2.459741E-06  1.001286E+02 -1.876132E-08 -6.212215E-08 -4.172836E-08
        20   1  2.399813E-06  2.399813E-06  1.001286E+02 -2.542591E-09  5.621167E-09  5.620953E-09
        20   2  2.414388E-06  2.407436E-06  1.001286E+02 -3.699518E-09  5.059319E-09 -1.232342E-08
        20   3  2.407477E-06  2.414419E-06  1.001286E+02 -3.697979E-09 -1.232525E-08  5.056218E-09
        20   4  2.381700E-06  2.381700E-06  1.001286E+02 -5.324018E-09 -1.825115E-08 -1.824961E-08
        20   5  2.383262E-06  2.383262E-06  1.001286E+02  1.598618E-08  3.885242E-08  3.885196E-08
        20   6  2.459791E-06  2.457912E-06  1.001286E+02  1.876106E-08 -4.172805E-08  6.212248E-08
        20   7  2.457874E-06  2.459743E-06  1.001286E+02  1.876297E-08  6.212236E-08 -4.172783E-08
        20   8  2.345297E-06  2.345308E-06  1.001286E+02  1.809434E-08 -5.261444E-08 -5.261246E-08
        21   1  2.482473E-06  2.482473E-06  1.001286E+02 -1.169842E-08 -2.448040E-08 -2.447685E-08