
 displacements (vx,vy,vz) for set NALL and time  0.1000000E+01

         1  0.000000E+00  0.000000E+00  0.000000E+00
         2 -4.700322E-02  0.000000E+00  0.000000E+00
         3 -4.700322E-02 -4.700322E-02  0.000000E+00
         4 -3.591708E-16 -4.700322E-02  0.000000E+00
         5  6.901475E-09  6.901988E-09  8.549490E-01
         6 -4.700323E-02  6.901971E-09  8.549490E-01
         7 -4.700323E-02 -4.700323E-02  8.549490E-01
         8  6.901492E-09 -4.700323E-02  8.549490E-01
         9 -1.175080E-02  9.643008E-13  0.000000E+00
        10 -2.350161E-02  1.789968E-12  0.000000E+00
        11 -3.525241E-02  9.630381E-13  0.000000E+00
        12 -4.700322E-02 -1.175080E-02  0.000000E+00
        13 -4.700322E-02 -2.350161E-02  0.000000E+00
        14 -4.700322E-02 -3.525241E-02  0.000000E+00
        15 -3.525241E-02 -4.700322E-02  0.000000E+00
        16 -2.350161E-02 -4.700322E-02  0.000000E+00
        17 -1.175080E-02 -4.700322E-02  0.000000E+00
        18  9.624035E-13 -3.525241E-02  0.000000E+00
        19  1.788107E-12 -2.350161E-02  0.000000E+00
        20  9.616855E-13 -1.175080E-02  0.000000E+00
        21 -1.175080E-02  8.235279E-09  8.549490E-01
        22 -2.350161E-02  9.246580E-09  8.549490E-01
        23 -3.525242E-02  8.235270E-09  8.549490E-01
        24 -4.700323E-02 -1.175080E-02  8.549490E-01
        25 -4.700323E-02 -2.350161E-02  8.549490E-01
        26 -4.700323E-02 -3.525242E-02  8.549490E-01
        27 -3.525242E-02 -4.700323E-02  8.549490E-01
        28 -2.350161E-02 -4.700323E-02  8.549490E-01
        29 -1.175080E-02 -4.700323E-02  8.549490E-01
        30  8.234783E-09 -3.525242E-02  8.549490E-01
        31  9.246084E-09 -2.350161E-02  8.549490E-01
        32  8.234775E-09 -1.175080E-02  8.549490E-01
        33 -4.700322E-02  1.339510E-12  5.343431E-02
        34 -4.700322E-02 -3.814485E-14  1.068686E-01
        35 -4.700322E-02  8.652715E-13  1.603029E-01
        36 -4.700322E-02 -2.376155E-12  2.137372E-01
        37 -4.700322E-02  5.569790E-12  2.671716E-01
        38 -4.700322E-02 -3.463512E-12  3.206059E-01
        39 -4.700322E-02 -4.122107E-12  3.740402E-01
        40 -4.700322E-02 -2.025547E-11  4.274745E-01
        41 -4.700322E-02  4.970199E-11  4.809088E-01
        42 -4.700322E-02 -2.067208E-12  5.343431E-01
        43 -4.700322E-02 -1.064321E-10  5.877774E-01
        44 -4.700322E-02 -6.846902E-11  6.412117E-01
        45 -4.700322E-02  4.997078E-10  6.946460E-01
        46 -4.700322E-02  6.633566E-10  7.480803E-01
        47 -4.700322E-02 -2.214145E-09  8.015147E-01
        48 -2.214591E-09 -2.214127E-09  8.015147E-01
        49  6.629610E-10  6.633756E-10  7.480803E-01
        50  4.993604E-10  4.997277E-10  6.946460E-01
        51 -6.876928E-11 -6.844962E-11  6.412117E-01
        52 -1.066877E-10 -1.064140E-10  5.877774E-01
        53 -2.280471E-12 -2.050839E-12  5.343431E-01
        54  4.952793E-11  4.971585E-11  4.809088E-01
        55 -2.039385E-11 -2.024299E-11  4.274745E-01
        56 -4.228273E-12 -4.109845E-12  3.740402E-01
        57 -3.541499E-12 -3.451048E-12  3.206059E-01
        58  5.515978E-12  5.582567E-12  2.671716E-01
        59 -2.410535E-12 -2.364715E-12  2.137372E-01
        60  8.463983E-13  8.752425E-13  1.603029E-01
        61 -4.634411E-14 -3.118213E-14  1.068686E-01
        62  1.338436E-12  1.344175E-12  5.343431E-02
        63 -4.700322E-02 -4.700322E-02  5.343431E-02
        64 -4.700322E-02 -4.700322E-02  1.068686E-01
        65 -4.700322E-02 -4.700322E-02  1.603029E-01
        66 -4.700322E-02 -4.700322E-02  2.137372E-01
        67 -4.700322E-02 -4.700322E-02  2.671716E-01
        68 -4.700322E-02 -4.700322E-02  3.206059E-01
        69 -4.700322E-02 -4.700322E-02  3.740402E-01
        70 -4.700322E-02 -4.700322E-02  4.274745E-01
        71 -4.700322E-02 -4.700322E-02  4.809088E-01
        72 -4.700322E-02 -4.700322E-02  5.343431E-01
        73 -4.700322E-02 -4.700322E-02  5.877774E-01
        74 -4.700322E-02 -4.700322E-02  6.412117E-01
        75 -4.700322E-02 -4.700322E-02  6.946460E-01
        76 -4.700322E-02 -4.700322E-02  7.480803E-01
        77 -4.700322E-02 -4.700322E-02  8.015147E-01
        78  1.339754E-12 -4.700322E-02  5.343431E-02
        79 -4.228265E-14 -4.700322E-02  1.068686E-01
        80  8.529050E-13 -4.700322E-02  1.603029E-01
        81 -2.402298E-12 -4.700322E-02  2.137372E-01
        82  5.525355E-12 -4.700322E-02  2.671716E-01
        83 -3.532121E-12 -4.700322E-02  3.206059E-01
        84 -4.218994E-12 -4.700322E-02  3.740402E-01
        85 -2.038428E-11 -4.700322E-02  4.274745E-01
        86  4.953925E-11 -4.700322E-02  4.809088E-01
        87 -2.266579E-12 -4.700322E-02  5.343431E-01
        88 -1.066714E-10 -4.700322E-02  5.877774E-01
        89 -6.875158E-11 -4.700322E-02  6.412117E-01
        90  4.993790E-10 -4.700322E-02  6.946460E-01
        91  6.629788E-10 -4.700322E-02  7.480803E-01
        92 -2.214573E-09 -4.700322E-02  8.015147E-01
        93 -2.350161E-02 -1.175080E-02  0.000000E+00
        94 -1.175080E-02 -2.350161E-02  0.000000E+00
        95 -2.350161E-02 -2.350161E-02  0.000000E+00
        96 -3.525241E-02 -2.350161E-02  0.000000E+00
        97 -2.350161E-02 -3.525241E-02  0.000000E+00
        98 -2.350161E-02 -1.175080E-02  8.549490E-01
        99 -1.175080E-02 -2.350161E-02  8.549490E-01
       100 -2.350161E-02 -2.350161E-02  8.549489E-01
       101 -3.525241E-02 -2.350161E-02  8.549490E-01
       102 -2.350161E-02 -3.525241E-02  8.549490E-01
       103 -2.350161E-02  4.739737E-13  5.343431E-02
       104 -1.175080E-02  9.542627E-13  1.068686E-01
       105 -2.350161E-02  2.227798E-12  1.068686E-01
       106 -3.525241E-02  9.509496E-13  1.068686E-01
       107 -2.350161E-02 -3.558145E-13  1.603029E-01
       108 -1.175080E-02  2.392084E-12  2.137372E-01
       109 -2.350161E-02  6.229772E-12  2.137372E-01
       110 -3.525241E-02  2.386451E-12  2.137372E-01
       111 -2.350161E-02 -2.256369E-12  2.671716E-01
       112 -1.175080E-02  5.924486E-12  3.206059E-01
       113 -2.350161E-02  1.840755E-11  3.206059E-01
       114 -3.525241E-02  5.918214E-12  3.206059E-01
       115 -2.350161E-02 -1.442331E-11  3.740402E-01
       116 -1.175080E-02  3.125112E-11  4.274745E-01
       117 -2.350161E-02  7.346331E-11  4.274745E-01
       118 -3.525241E-02  3.124466E-11  4.274745E-01
       119 -2.350161E-02 -4.575877E-11  4.809088E-01
       120 -1.175080E-02  1.178717E-10  5.343431E-01
       121 -2.350161E-02  2.645703E-10  5.343431E-01
       122 -3.525241E-02  1.178635E-10  5.343431E-01
       123 -2.350161E-02 -2.188448E-10  5.877774E-01
       124 -1.175080E-02  5.683217E-10  6.412117E-01
       125 -2.350161E-02  1.142512E-09  6.412117E-01
       126 -3.525241E-02  5.683120E-10  6.412117E-01
       127 -2.350161E-02 -8.231586E-10  6.946460E-01
       128 -1.175080E-02  2.305083E-09  7.480804E-01
       129 -2.350161E-02  4.035737E-09  7.480803E-01
       130 -3.525241E-02  2.305073E-09  7.480804E-01
       131 -2.350161E-02 -4.311622E-09  8.015147E-01
       132 -4.700322E-02 -2.350161E-02  5.343431E-02
       133 -4.700322E-02 -1.175080E-02  1.068686E-01
       134 -4.700322E-02 -2.350161E-02  1.068686E-01
       135 -4.700322E-02 -3.525241E-02  1.068686E-01
       136 -4.700322E-02 -2.350161E-02  1.603029E-01
       137 -4.700322E-02 -1.175080E-02  2.137372E-01
       138 -4.700322E-02 -2.350161E-02  2.137372E-01
       139 -4.700322E-02 -3.525241E-02  2.137372E-01
       140 -4.700322E-02 -2.350161E-02  2.671716E-01
       141 -4.700322E-02 -1.175080E-02  3.206059E-01
       142 -4.700322E-02 -2.350161E-02  3.206059E-01
       143 -4.700322E-02 -3.525241E-02  3.206059E-01
       144 -4.700322E-02 -2.350161E-02  3.740402E-01
       145 -4.700322E-02 -1.175080E-02  4.274745E-01
       146 -4.700322E-02 -2.350161E-02  4.274745E-01
       147 -4.700322E-02 -3.525241E-02  4.274745E-01
       148 -4.700322E-02 -2.350161E-02  4.809088E-01
       149 -4.700322E-02 -1.175080E-02  5.343431E-01
       150 -4.700322E-02 -2.350161E-02  5.343431E-01
       151 -4.700322E-02 -3.525241E-02  5.343431E-01
       152 -4.700322E-02 -2.350161E-02  5.877774E-01
       153 -4.700322E-02 -1.175080E-02  6.412117E-01
       154 -4.700322E-02 -2.350161E-02  6.412117E-01
       155 -4.700322E-02 -3.525241E-02  6.412117E-01
       156 -4.700322E-02 -2.350161E-02  6.946460E-01
       157 -4.700322E-02 -1.175080E-02  7.480804E-01
       158 -4.700322E-02 -2.350161E-02  7.480803E-01
       159 -4.700322E-02 -3.525241E-02  7.480804E-01
       160 -4.700321E-02 -2.350161E-02  8.015147E-01
       161 -2.350161E-02 -4.700322E-02  5.343431E-02
       162 -3.525241E-02 -4.700322E-02  1.068686E-01
       163 -2.350161E-02 -4.700322E-02  1.068686E-01
       164 -1.175080E-02 -4.700322E-02  1.068686E-01
       165 -2.350161E-02 -4.700322E-02  1.603029E-01
       166 -3.525241E-02 -4.700322E-02  2.137372E-01
       167 -2.350161E-02 -4.700322E-02  2.137372E-01
       168 -1.175080E-02 -4.700322E-02  2.137372E-01
       169 -2.350161E-02 -4.700322E-02  2.671716E-01
       170 -3.525241E-02 -4.700322E-02  3.206059E-01
       171 -2.350161E-02 -4.700322E-02  3.206059E-01
       172 -1.175080E-02 -4.700322E-02  3.206059E-01
       173 -2.350161E-02 -4.700322E-02  3.740402E-01
       174 -3.525241E-02 -4.700322E-02  4.274745E-01
       175 -2.350161E-02 -4.700322E-02  4.274745E-01
       176 -1.175080E-02 -4.700322E-02  4.274745E-01
       177 -2.350161E-02 -4.700322E-02  4.809088E-01
       178 -3.525241E-02 -4.700322E-02  5.343431E-01
       179 -2.350161E-02 -4.700322E-02  5.343431E-01
       180 -1.175080E-02 -4.700322E-02  5.343431E-01
       181 -2.350161E-02 -4.700322E-02  5.877774E-01
       182 -3.525241E-02 -4.700322E-02  6.412117E-01
       183 -2.350161E-02 -4.700322E-02  6.412117E-01
       184 -1.175080E-02 -4.700322E-02  6.412117E-01
       185 -2.350161E-02 -4.700322E-02  6.946460E-01
       186 -3.525241E-02 -4.700322E-02  7.480804E-01
       187 -2.350161E-02 -4.700322E-02  7.480803E-01
       188 -1.175080E-02 -4.700322E-02  7.480804E-01
       189 -2.350161E-02 -4.700321E-02  8.015147E-01
       190  4.698967E-13 -2.350161E-02  5.343431E-02
       191  9.431378E-13 -3.525241E-02  1.068686E-01
       192  2.216973E-12 -2.350161E-02  1.068686E-01
       193  9.409547E-13 -1.175080E-02  1.068686E-01
       194 -3.775227E-13 -2.350161E-02  1.603029E-01
       195  2.354464E-12 -3.525241E-02  2.137372E-01
       196  6.192676E-12 -2.350161E-02  2.137372E-01
       197  2.350161E-12 -1.175080E-02  2.137372E-01
       198 -2.313284E-12 -2.350161E-02  2.671716E-01
       199  5.843346E-12 -3.525241E-02  3.206059E-01
       200  1.832690E-11 -2.350161E-02  3.206059E-01
       201  5.838413E-12 -1.175080E-02  3.206059E-01
       202 -1.453210E-11 -2.350161E-02  3.740402E-01
       203  3.110984E-11 -3.525241E-02  4.274745E-01
       204  7.332254E-11 -2.350161E-02  4.274745E-01
       205  3.110467E-11 -1.175080E-02  4.274745E-01
       206 -4.593510E-11 -2.350161E-02  4.809088E-01
       207  1.176559E-10 -3.525241E-02  5.343431E-01
       208  2.643549E-10 -2.350161E-02  5.343431E-01
       209  1.176488E-10 -1.175080E-02  5.343431E-01
       210 -2.191019E-10 -2.350161E-02  5.877774E-01
       211  5.680196E-10 -3.525241E-02  6.412117E-01
       212  1.142210E-09 -2.350161E-02  6.412117E-01
       213  5.680108E-10 -1.175080E-02  6.412117E-01
       214 -8.235070E-10 -2.350161E-02  6.946460E-01
       215  2.304686E-09 -3.525241E-02  7.480804E-01
       216  4.035340E-09 -2.350161E-02  7.480803E-01
       217  2.304677E-09 -1.175080E-02  7.480804E-01
       218 -4.312068E-09 -2.350161E-02  8.015147E-01
       219 -2.350161E-02 -2.350161E-02  5.343431E-02
       220 -2.350161E-02 -1.175080E-02  1.068686E-01
       221 -1.175080E-02 -2.350161E-02  1.068686E-01
       222 -2.350161E-02 -2.350161E-02  1.068686E-01
       223 -3.525241E-02 -2.350161E-02  1.068686E-01
       224 -2.350161E-02 -3.525241E-02  1.068686E-01
       225 -2.350161E-02 -2.350161E-02  1.603029E-01
       226 -2.350161E-02 -1.175080E-02  2.137372E-01
       227 -1.175080E-02 -2.350161E-02  2.137372E-01
       228 -2.350161E-02 -2.350161E-02  2.137372E-01
       229 -3.525241E-02 -2.350161E-02  2.137372E-01
       230 -2.350161E-02 -3.525241E-02  2.137372E-01
       231 -2.350161E-02 -2.350161E-02  2.671716E-01
       232 -2.350161E-02 -1.175080E-02  3.206059E-01
       233 -1.175080E-02 -2.350161E-02  3.206059E-01
       234 -2.350161E-02 -2.350161E-02  3.206059E-01
       235 -3.525241E-02 -2.350161E-02  3.206059E-01
       236 -2.350161E-02 -3.525241E-02  3.206059E-01
       237 -2.350161E-02 -2.350161E-02  3.740402E-01
       238 -2.350161E-02 -1.175080E-02  4.274745E-01
       239 -1.175080E-02 -2.350161E-02  4.274745E-01
       240 -2.350161E-02 -2.350161E-02  4.274745E-01
       241 -3.525241E-02 -2.350161E-02  4.274745E-01
       242 -2.350161E-02 -3.525241E-02  4.274745E-01
       243 -2.350161E-02 -2.350161E-02  4.809088E-01
       244 -2.350161E-02 -1.175080E-02  5.343431E-01
       245 -1.175080E-02 -2.350161E-02  5.343431E-01
       246 -2.350161E-02 -2.350161E-02  5.343431E-01
       247 -3.525241E-02 -2.350161E-02  5.343431E-01
       248 -2.350161E-02 -3.525241E-02  5.343431E-01
       249 -2.350161E-02 -2.350161E-02  5.877774E-01
       250 -2.350161E-02 -1.175080E-02  6.412117E-01
       251 -1.175080E-02 -2.350161E-02  6.412117E-01
       252 -2.350161E-02 -2.350161E-02  6.412117E-01
       253 -3.525241E-02 -2.350161E-02  6.412117E-01
       254 -2.350161E-02 -3.525241E-02  6.412117E-01
       255 -2.350161E-02 -2.350161E-02  6.946460E-01
       256 -2.350161E-02 -1.175080E-02  7.480804E-01
       257 -1.175080E-02 -2.350161E-02  7.480804E-01
       258 -2.350161E-02 -2.350161E-02  7.480804E-01
       259 -3.525242E-02 -2.350161E-02  7.480804E-01
       260 -2.350161E-02 -3.525242E-02  7.480804E-01
       261 -2.350161E-02 -2.350161E-02  8.015147E-01

 forces (fx,fy,fz) for set NALL and time  0.1000000E+01

         1  6.377985E-09  6.377985E-09  2.083332E-02
         2 -6.377986E-09  6.377987E-09  2.083332E-02
         3 -6.377985E-09 -6.377985E-09  2.083332E-02
         4  6.377986E-09 -6.377985E-09  2.083332E-02
         5  6.377516E-09  6.377514E-09 -2.083329E-02
         6 -6.377518E-09  6.377516E-09 -2.083329E-02
         7 -6.377516E-09 -6.377520E-09 -2.083329E-02
         8  6.377521E-09 -6.377523E-09 -2.083329E-02
         9 -9.025958E-18 -2.551194E-08 -8.333329E-02
        10  7.436298E-17  1.275597E-08  4.166664E-02
        11  8.416731E-16 -2.551194E-08 -8.333329E-02
        12  2.551194E-08 -1.737596E-15 -8.333329E-02
        13 -1.275597E-08  1.360223E-15  4.166664E-02
        14  2.551194E-08 -1.088915E-15 -8.333329E-02
        15 -4.587498E-16  2.551194E-08 -8.333329E-02
        16  5.568412E-16 -1.275597E-08  4.166664E-02
        17 -7.579190E-16  2.551194E-08 -8.333329E-02
        18 -2.551194E-08 -1.032034E-15 -8.333329E-02
        19  1.275597E-08  1.733608E-15  4.166664E-02
        20 -2.551194E-08 -1.601451E-15 -8.333329E-02
        21  2.231676E-13 -2.551239E-08  8.333326E-02
        22 -2.350666E-15  1.275538E-08 -4.166658E-02
        23 -2.191811E-13 -2.551239E-08  8.333326E-02
        24  2.551240E-08  2.257239E-13  8.333326E-02
        25 -1.275538E-08 -3.871871E-15 -4.166658E-02
        26  2.551240E-08 -2.134736E-13  8.333326E-02
        27 -2.241193E-13  2.551240E-08  8.333326E-02
        28  6.237641E-16 -1.275539E-08 -4.166658E-02
        29  2.183357E-13  2.551240E-08  8.333326E-02
        30 -2.551240E-08 -2.113563E-13  8.333326E-02
        31  1.275538E-08 -7.604117E-15 -4.166658E-02
        32 -2.551240E-08  2.316490E-13  8.333326E-02
        33  2.551194E-08 -2.551194E-08  6.188626E-16
        34 -1.275597E-08  1.275597E-08 -2.331035E-16
        35  2.551194E-08 -2.551194E-08  8.209579E-16
        36 -1.275597E-08  1.275597E-08  1.351566E-15
        37  2.551194E-08 -2.551194E-08 -1.328798E-15
        38 -1.275597E-08  1.275597E-08  5.908468E-15
        39  2.551194E-08 -2.551194E-08 -6.874275E-15
        40 -1.275598E-08  1.275597E-08  1.795352E-14
        41  2.551195E-08 -2.551195E-08 -2.313080E-14
        42 -1.275597E-08  1.275597E-08  5.944659E-14
        43  2.551193E-08 -2.551193E-08 -9.033074E-14
        44 -1.275606E-08  1.275606E-08  1.885876E-13
        45  2.551211E-08 -2.551211E-08 -2.673940E-13
        46 -1.275571E-08  1.275570E-08  5.006254E-13
        47  2.551151E-08 -2.551151E-08 -8.525524E-13
        48 -2.551151E-08 -2.551151E-08 -8.511094E-13
        49  1.275570E-08  1.275570E-08  4.989181E-13
        50 -2.551211E-08 -2.551211E-08 -2.665496E-13
        51  1.275606E-08  1.275606E-08  1.887128E-13
        52 -2.551194E-08 -2.551194E-08 -9.190782E-14
        53  1.275597E-08  1.275597E-08  6.019799E-14
        54 -2.551195E-08 -2.551195E-08 -2.496592E-14
        55  1.275598E-08  1.275598E-08  1.851297E-14
        56 -2.551194E-08 -2.551194E-08 -6.784612E-15
        57  1.275597E-08  1.275597E-08  5.269006E-15
        58 -2.551194E-08 -2.551194E-08 -1.596271E-15
        59  1.275597E-08  1.275597E-08  1.983765E-15
        60 -2.551194E-08 -2.551194E-08  2.480112E-16
        61  1.275597E-08  1.275597E-08 -1.708703E-16
        62 -2.551194E-08 -2.551194E-08  1.022999E-15
        63  2.551194E-08  2.551194E-08 -6.401130E-16
        64 -1.275597E-08 -1.275597E-08  1.058832E-15
        65  2.551194E-08  2.551194E-08 -2.711373E-15
        66 -1.275597E-08 -1.275597E-08  3.455352E-15
        67  2.551194E-08  2.551194E-08 -5.801783E-15
        68 -1.275597E-08 -1.275597E-08  7.615436E-15
        69  2.551194E-08  2.551194E-08 -1.358115E-14
        70 -1.275598E-08 -1.275598E-08  2.139001E-14
        71  2.551196E-08  2.551195E-08 -3.376119E-14
        72 -1.275598E-08 -1.275597E-08  6.647504E-14
        73  2.551194E-08  2.551194E-08 -1.054296E-13
        74 -1.275606E-08 -1.275606E-08  1.962113E-13
        75  2.551211E-08  2.551211E-08 -2.812958E-13
        76 -1.275570E-08 -1.275570E-08  5.078945E-13
        77  2.551151E-08  2.551151E-08 -8.675092E-13
        78 -2.551194E-08  2.551194E-08 -5.477389E-16
        79  1.275597E-08 -1.275597E-08  1.907328E-15
        80 -2.551194E-08  2.551194E-08 -4.662503E-15
        81  1.275597E-08 -1.275597E-08  3.720765E-15
        82 -2.551194E-08  2.551194E-08 -6.564844E-15
        83  1.275597E-08 -1.275597E-08  8.067765E-15
        84 -2.551194E-08  2.551194E-08 -1.441946E-14
        85  1.275598E-08 -1.275598E-08  2.207436E-14
        86 -2.551196E-08  2.551196E-08 -3.528818E-14
        87  1.275597E-08 -1.275597E-08  6.615867E-14
        88 -2.551194E-08  2.551194E-08 -1.052695E-13
        89  1.275606E-08 -1.275606E-08  1.939907E-13
        90 -2.551211E-08  2.551211E-08 -2.789401E-13
        91  1.275570E-08 -1.275570E-08  5.028974E-13
        92 -2.551151E-08  2.551151E-08 -8.617473E-13
        93 -9.183201E-16 -3.031840E-15 -1.666666E-01
        94 -2.546839E-15 -2.428042E-15 -1.666666E-01
        95  1.611514E-15  1.957987E-15  8.333329E-02
        96  5.104764E-16  6.854565E-17 -1.666666E-01
        97  1.498882E-15  4.127029E-16 -1.666666E-01
        98  1.701260E-15  4.456655E-14  1.666665E-01
        99  3.032558E-14  8.037416E-15  1.666665E-01
       100 -1.215913E-15 -9.930039E-15 -8.333326E-02
       101 -3.297791E-14  3.379989E-15  1.666665E-01
       102 -2.841749E-15 -1.578831E-14  1.666665E-01
       103 -1.392925E-15 -5.102388E-08  2.208628E-15
       104  3.004790E-15 -5.102388E-08  2.922196E-15
       105 -2.708848E-15  2.551195E-08 -1.062681E-15
       106  3.215298E-15 -5.102388E-08  3.184085E-15
       107 -1.036318E-15 -5.102388E-08  2.219633E-15
       108 -7.422908E-16 -5.102388E-08  4.430430E-15
       109 -1.796087E-15  2.551194E-08 -7.391548E-16
       110  4.038582E-15 -5.102388E-08  4.913604E-15
       111 -2.601105E-16 -5.102388E-08  3.864855E-15
       112  3.820834E-15 -5.102388E-08  7.377128E-15
       113 -7.551827E-16  2.551194E-08  4.913550E-15
       114 -4.084389E-15 -5.102388E-08  6.136530E-15
       115 -1.886298E-15 -5.102389E-08 -4.682073E-15
       116 -8.334237E-15 -5.102389E-08  4.760786E-15
       117  3.587905E-15  2.551194E-08  1.361763E-14
       118  2.124207E-15 -5.102389E-08  5.952866E-15
       119  1.229182E-15 -5.102389E-08 -1.328354E-14
       120  2.447551E-14 -5.102385E-08  8.972749E-15
       121 -1.994624E-15  2.551197E-08  8.428696E-14
       122 -2.122603E-14 -5.102385E-08  1.009896E-14
       123  1.375479E-15 -5.102390E-08 -1.378982E-13
       124 -4.920020E-14 -5.102398E-08 -3.639547E-14
       125 -1.565173E-15  2.551206E-08  2.640180E-13
       126  5.294480E-14 -5.102398E-08 -3.740611E-14
       127 -2.451095E-15 -5.102414E-08 -3.768224E-13
       128  3.976475E-13 -5.102340E-08  8.361703E-14
       129 -7.140110E-15  2.551159E-08  7.102666E-13
       130 -3.841953E-13 -5.102340E-08  8.728830E-14
       131  3.387269E-15 -5.102279E-08 -9.936019E-13
       132  5.102388E-08 -4.988390E-16  9.996344E-17
       133  5.102388E-08 -2.985621E-15  1.251386E-15
       134 -2.551194E-08  2.681017E-15  7.149229E-16
       135  5.102388E-08 -2.914119E-15 -2.112026E-16
       136  5.102388E-08 -3.353653E-15 -9.393528E-16
       137  5.102388E-08 -6.087624E-15  9.356665E-16
       138 -2.551194E-08  4.144319E-15  2.209604E-16
       139  5.102388E-08 -1.155826E-15  9.456411E-16
       140  5.102388E-08 -2.624720E-15  9.580010E-16
       141  5.102388E-08  1.094996E-14 -1.238159E-16
       142 -2.551195E-08 -5.968640E-15  6.280133E-15
       143  5.102388E-08  2.114727E-15 -1.886512E-17
       144  5.102389E-08 -2.819557E-15 -1.147238E-14
       145  5.102389E-08 -1.138159E-15 -3.590661E-15
       146 -2.551195E-08 -1.630170E-15  1.940375E-14
       147  5.102389E-08  6.065482E-15 -2.521204E-15
       148  5.102389E-08 -2.729942E-16 -2.602020E-14
       149  5.102385E-08  1.687842E-14 -2.959872E-16
       150 -2.551197E-08  1.070864E-15  8.979211E-14
       151  5.102386E-08 -1.561837E-14 -1.905377E-15
       152  5.102390E-08 -2.885956E-15 -1.450617E-13
       153  5.102398E-08 -5.243974E-14 -4.982169E-14
       154 -2.551206E-08  3.601584E-15  2.720198E-13
       155  5.102398E-08  4.451614E-14 -5.091934E-14
       156  5.102415E-08 -4.277276E-15 -3.943644E-13
       157  5.102340E-08  3.853572E-13  7.577294E-14
       158 -2.551159E-08  1.979022E-15  7.196498E-13
       159  5.102340E-08 -3.881045E-13  7.572740E-14
       160  5.102279E-08 -4.009387E-15 -1.008036E-12
       161  5.962048E-16  5.102388E-08 -5.867702E-16
       162 -3.105841E-16  5.102388E-08 -2.586690E-15
       163 -2.122915E-16 -2.551194E-08  1.217559E-15
       164 -1.125147E-15  5.102388E-08 -2.244298E-15
       165  2.412647E-16  5.102388E-08 -4.289537E-15
       166  1.956381E-15  5.102388E-08 -5.072548E-15
       167 -3.893426E-16 -2.551194E-08  2.975918E-15
       168  9.610482E-16  5.102388E-08 -5.047612E-15
       169  5.802435E-16  5.102388E-08 -7.626495E-15
       170  4.392658E-15  5.102388E-08 -8.217168E-15
       171 -4.999580E-15 -2.551194E-08  1.045843E-14
       172  6.464610E-15  5.102388E-08 -8.594254E-15
       173  9.720156E-16  5.102389E-08 -1.989489E-14
       174  8.986041E-15  5.102389E-08 -1.464931E-14
       175 -3.533464E-15 -2.551194E-08  2.414085E-14
       176 -2.456738E-15  5.102389E-08 -1.418050E-14
       177 -5.272673E-17  5.102390E-08 -3.918155E-14
       178 -8.227424E-15  5.102386E-08 -1.367851E-14
       179 -8.086501E-15 -2.551197E-08  9.813222E-14
       180  2.335229E-14  5.102386E-08 -1.350656E-14
       181  4.177203E-16  5.102390E-08 -1.616862E-13
       182  4.514865E-14  5.102398E-08 -6.649434E-14
       183  4.754483E-15 -2.551205E-08  2.775506E-13
       184 -5.085090E-14  5.102398E-08 -6.459742E-14
       185 -1.571770E-15  5.102415E-08 -4.059504E-13
       186 -3.923258E-13  5.102340E-08  5.952574E-14
       187  1.933785E-15 -2.551159E-08  7.239242E-13
       188  3.895668E-13  5.102340E-08  5.805274E-14
       189  3.121913E-15  5.102279E-08 -1.020206E-12
       190 -5.102388E-08 -3.484855E-15  1.548512E-15
       191 -5.102388E-08 -9.896541E-16  4.411077E-16
       192  2.551194E-08  4.045821E-15 -7.889197E-16
       193 -5.102388E-08 -4.642131E-15 -5.492026E-16
       194 -5.102388E-08 -1.644206E-15 -1.031835E-15
       195 -5.102388E-08 -4.210012E-15 -5.544610E-16
       196  2.551194E-08  5.923374E-15  1.746108E-15
       197 -5.102388E-08 -7.152171E-15 -7.485874E-16
       198 -5.102388E-08 -1.750999E-15 -3.052246E-15
       199 -5.102388E-08 -5.816881E-15 -1.912099E-15
       200  2.551194E-08  3.649717E-15  8.247851E-15
       201 -5.102388E-08 -5.491702E-16 -1.221842E-15
       202 -5.102389E-08 -4.125422E-15 -1.354618E-14
       203 -5.102390E-08  1.826832E-15 -5.602452E-15
       204  2.551195E-08  2.047734E-15  1.989007E-14
       205 -5.102389E-08 -5.298381E-15 -5.769853E-15
       206 -5.102389E-08 -3.906016E-15 -2.811591E-14
       207 -5.102386E-08 -1.649681E-14 -2.731431E-15
       208  2.551196E-08 -1.994342E-15  9.003285E-14
       209 -5.102385E-08  2.032409E-14 -4.542048E-15
       210 -5.102390E-08  4.540656E-16 -1.482588E-13
       211 -5.102398E-08  4.515702E-14 -5.230142E-14
       212  2.551205E-08  6.369979E-15  2.695089E-13
       213 -5.102398E-08 -5.498509E-14 -5.123723E-14
       214 -5.102415E-08 -4.219330E-15 -3.928057E-13
       215 -5.102340E-08 -3.901554E-13  7.096119E-14
       216  2.551159E-08  1.933033E-16  7.182173E-13
       217 -5.102340E-08  3.920155E-13  6.951969E-14
       218 -5.102279E-08 -7.299788E-16 -1.006815E-12
       219 -5.270715E-16 -2.135231E-15  1.989023E-15
       220 -2.708665E-15 -7.369633E-15  9.666747E-16
       221  3.290922E-17 -4.684378E-15  3.439089E-16
       222 -1.490002E-15  5.125798E-15 -4.359035E-16
       223  4.072175E-15 -2.381742E-15  7.228376E-16
       224 -4.911198E-16 -3.891707E-16  1.181780E-17
       225 -5.127023E-16 -3.825774E-15 -1.169583E-15
       226 -3.388842E-16 -8.408830E-15  4.930409E-16
       227 -3.025810E-16 -3.740743E-15  4.155747E-16
       228 -3.829245E-15  6.648822E-15 -1.396344E-15
       229  5.887716E-15 -3.142515E-15  1.133696E-15
       230  2.155536E-16 -2.067385E-16  5.167850E-16
       231  1.508384E-15 -3.458909E-15  4.153199E-15
       232  7.745519E-16  4.522910E-15 -1.643596E-15
       233  8.887549E-15 -3.831275E-15 -1.361921E-15
       234 -3.474414E-15  3.855014E-15  9.304081E-15
       235 -3.292628E-16 -5.907800E-15 -2.529769E-15
       236 -9.678781E-16 -8.584385E-15 -1.515227E-15
       237 -1.267792E-15 -4.108817E-15 -2.177788E-14
       238 -1.655396E-15 -7.548078E-15 -3.211949E-15
       239 -8.170590E-15 -4.534404E-15 -2.123410E-15
       240  1.305527E-15  7.936786E-15  2.108020E-14
       241  6.613546E-15 -5.357707E-16 -1.338556E-15
       242  2.305952E-15 -2.058030E-16 -2.875629E-15
       243  7.687154E-16 -3.412250E-15 -1.226032E-14
       244  8.780502E-16  1.736316E-14 -1.164260E-14
       245  2.988530E-14 -3.008272E-15 -1.101257E-14
       246 -6.419522E-15  2.506129E-15  1.230661E-13
       247 -1.836336E-14 -4.573770E-15 -1.174402E-14
       248 -5.694766E-16 -2.349156E-14 -1.084218E-14
       249  4.692159E-17 -2.120115E-15 -2.359875E-13
       250  1.390316E-15 -9.966742E-14 -6.194080E-14
       251 -8.816552E-14 -2.878505E-15 -6.181085E-14
       252 -1.753217E-15  1.256450E-14  3.648743E-13
       253  9.483461E-14 -2.954489E-15 -6.224302E-14
       254  1.382924E-15  8.158614E-14 -6.296434E-14
       255 -2.550925E-15 -3.734080E-15 -4.246519E-13
       256  1.985579E-17  6.480426E-13  2.955296E-13
       257  6.606123E-13 -5.666306E-15  2.940837E-13
       258 -1.329067E-15  1.059966E-14  7.755497E-13
       259 -6.591506E-13 -3.874435E-15  2.977295E-13
       260  1.769948E-15 -6.637086E-13  2.965885E-13
       261  2.849284E-15 -2.487464E-15 -1.083848E-12

 stresses (elem, integ.pnt.,sxx,syy,szz,sxy,sxz,syz) for set EALL and time  0.1000000E+01

         1   1  1.451440E-07  1.451440E-07  1.101075E+00 -7.154141E-12  2.392792E-11  2.394266E-11
         1   2  1.450792E-07  1.450811E-07  1.101075E+00 -7.761544E-12  8.970897E-12 -1.657861E-11
         1   3  1.450812E-07  1.450792E-07  1.101075E+00 -7.752968E-12 -1.658151E-11  8.981630E-12
         1   4  1.451393E-07  1.451393E-07  1.101075E+00 -7.551788E-12 -1.621160E-11 -1.620832E-11
         1   5  1.449840E-07  1.449840E-07  1.101075E+00  1.466014E-11  2.086535E-11  2.087985E-11
         1   6  1.452286E-07  1.452250E-07  1.101075E+00  1.699054E-11 -1.728344E-11  1.192984E-11
         1   7  1.452250E-07  1.452286E-07  1.101075E+00  1.699516E-11  1.192347E-11 -1.726045E-11
         1   8  1.450009E-07  1.450009E-07  1.101075E+00  1.589692E-11 -7.906481E-12 -7.896760E-12
         2   1  1.450792E-07  1.450812E-07  1.101075E+00  7.757966E-12 -8.977862E-12 -1.658166E-11
         2   2  1.451440E-07  1.451440E-07  1.101075E+00  7.160056E-12 -2.393430E-11  2.392305E-11
         2   3  1.451393E-07  1.451393E-07  1.101075E+00  7.551508E-12  1.621125E-11 -1.621035E-11
         2   4  1.450812E-07  1.450792E-07  1.101075E+00  7.760178E-12  1.658112E-11  8.971064E-12
         2   5  1.452286E-07  1.452251E-07  1.101075E+00 -1.699356E-11  1.726614E-11  1.193154E-11
         2   6  1.449840E-07  1.449840E-07  1.101075E+00 -1.466154E-11 -2.087729E-11  2.087582E-11
         2   7  1.450009E-07  1.450009E-07  1.101075E+00 -1.589710E-11  7.901954E-12 -7.898903E-12
         2   8  1.452251E-07  1.452286E-07  1.101075E+00 -1.699467E-11 -1.192474E-11 -1.727596E-11
         3   1  1.450811E-07  1.450792E-07  1.101075E+00  7.762249E-12 -1.658153E-11 -8.969673E-12
         3   2  1.451393E-07  1.451393E-07  1.101075E+00  7.556502E-12 -1.621062E-11  1.621418E-11
         3   3  1.451440E-07  1.451440E-07  1.101075E+00  7.157791E-12  2.393235E-11 -2.392789E-11
         3   4  1.450792E-07  1.450812E-07  1.101075E+00  7.758753E-12  8.976600E-12  1.658263E-11
         3   5  1.452251E-07  1.452286E-07  1.101075E+00 -1.699006E-11  1.192299E-11  1.728993E-11