
 displacements (vx,vy,vz) for set NALL and time  0.1000000E+01

         1  0.000000E+00  0.000000E+00  0.000000E+00
         2  5.086431E-09  0.000000E+00  0.000000E+00
         3  5.086434E-09  5.086430E-09  0.000000E+00
         4  9.855364E-16  5.086434E-09  0.000000E+00
         5  3.468158E-09  3.468151E-09  2.231921E-01
         6  1.618283E-09  3.468152E-09  2.231921E-01
         7  1.618289E-09  1.618278E-09  2.231921E-01
         8  3.468162E-09  1.618278E-09  2.231921E-01
         9  1.271576E-09 -3.338924E-14  0.000000E+00
        10  2.543214E-09 -1.346815E-13  0.000000E+00
        11  3.814853E-09 -3.503140E-14  0.000000E+00
        12  5.086463E-09  1.271577E-09  0.000000E+00
        13  5.086565E-09  2.543212E-09  0.000000E+00
        14  5.086467E-09  3.814851E-09  0.000000E+00
        15  3.814856E-09  5.086464E-09  0.000000E+00
        16  2.543218E-09  5.086567E-09  0.000000E+00
        17  1.271578E-09  5.086468E-09  0.000000E+00
        18 -3.290120E-14  3.814856E-09  0.000000E+00
        19 -1.351539E-13  2.543218E-09  0.000000E+00
        20 -3.458613E-14  1.271577E-09  0.000000E+00
        21  3.013075E-09  4.304301E-09  2.231921E-01
        22  2.543219E-09  5.094076E-09  2.231921E-01
        23  2.073366E-09  4.304300E-09  2.231921E-01
        24  7.821345E-10  3.013068E-09  2.231921E-01
        25 -7.639988E-12  2.543215E-09  2.231921E-01
        26  7.821379E-10  2.073360E-09  2.231921E-01
        27  2.073369E-09  7.821293E-10  2.231921E-01
        28  2.543224E-09 -7.645164E-12  2.231921E-01
        29  3.013078E-09  7.821300E-10  2.231921E-01
        30  4.304308E-09  2.073362E-09  2.231921E-01
        31  5.094081E-09  2.543215E-09  2.231921E-01
        32  4.304306E-09  3.013070E-09  2.231921E-01
        33  5.086439E-09 -9.656658E-15  1.394950E-02
        34  5.086712E-09 -2.830244E-13  2.789901E-02
        35  5.086908E-09 -4.761975E-13  4.184851E-02
        36  5.086782E-09 -3.452761E-13  5.579801E-02
        37  5.084410E-09  2.031672E-12  6.974752E-02
        38  5.091911E-09 -5.467845E-12  8.369702E-02
        39  5.088964E-09 -2.522399E-12  9.764652E-02
        40  5.100636E-09 -1.419689E-11  1.115960E-01
        41  5.051967E-09  3.447526E-11  1.255455E-01
        42  5.178134E-09 -9.169617E-11  1.394950E-01
        43  5.091353E-09 -4.915665E-12  1.534445E-01
        44  5.270048E-09 -1.836085E-10  1.673940E-01
        45  4.636692E-09  4.497495E-10  1.813435E-01
        46  5.446459E-09 -3.600152E-10  1.952930E-01
        47  6.105058E-09 -1.018618E-09  2.092426E-01
        48 -1.018612E-09 -1.018619E-09  2.092426E-01
        49 -3.600050E-10 -3.600172E-10  1.952930E-01
        50  4.497627E-10  4.497485E-10  1.813435E-01
        51 -1.835960E-10 -1.836084E-10  1.673940E-01
        52 -4.902634E-12 -4.913206E-12  1.534445E-01
        53 -9.168512E-11 -9.169231E-11  1.394950E-01
        54  3.448305E-11  3.447755E-11  1.255455E-01
        55 -1.418929E-11 -1.419307E-11  1.115960E-01
        56 -2.517492E-12 -2.521408E-12  9.764652E-02
        57 -5.465273E-12 -5.466740E-12  8.369702E-02
        58  2.032212E-12  2.032738E-12  6.974752E-02
        59 -3.437956E-13 -3.446777E-13  5.579801E-02
        60 -4.759509E-13 -4.736316E-13  4.184851E-02
        61 -2.869777E-13 -2.772351E-13  2.789901E-02
        62 -1.147092E-14 -5.504957E-15  1.394950E-02
        63  5.086442E-09  5.086439E-09  1.394950E-02
        64  5.086717E-09  5.086715E-09  2.789901E-02
        65  5.086911E-09  5.086909E-09  4.184851E-02
        66  5.086784E-09  5.086782E-09  5.579801E-02
        67  5.084409E-09  5.084407E-09  6.974752E-02
        68  5.091911E-09  5.091904E-09  8.369702E-02
        69  5.088968E-09  5.088956E-09  9.764652E-02
        70  5.100640E-09  5.100627E-09  1.115960E-01
        71  5.051969E-09  5.051954E-09  1.255455E-01
        72  5.178136E-09  5.178123E-09  1.394950E-01
        73  5.091357E-09  5.091341E-09  1.534445E-01
        74  5.270050E-09  5.270035E-09  1.673940E-01
        75  4.636693E-09  4.636677E-09  1.813435E-01
        76  5.446459E-09  5.446443E-09  1.952930E-01
        77  6.105059E-09  6.105048E-09  2.092426E-01
        78 -8.824278E-15  5.086441E-09  1.394950E-02
        79 -2.818479E-13  5.086716E-09  2.789901E-02
        80 -4.722096E-13  5.086913E-09  4.184851E-02
        81 -3.411531E-13  5.086784E-09  5.579801E-02
        82  2.035484E-12  5.084409E-09  6.974752E-02
        83 -5.463420E-12  5.091907E-09  8.369702E-02
        84 -2.515029E-12  5.088959E-09  9.764652E-02
        85 -1.418658E-11  5.100630E-09  1.115960E-01
        86  3.448580E-11  5.051958E-09  1.255455E-01
        87 -9.168144E-11  5.178126E-09  1.394950E-01
        88 -4.900959E-12  5.091344E-09  1.534445E-01
        89 -1.835933E-10  5.270037E-09  1.673940E-01
        90  4.497634E-10  4.636680E-09  1.813435E-01
        91 -3.600042E-10  5.446446E-09  1.952930E-01
        92 -1.018609E-09  6.105048E-09  2.092426E-01
        93  2.543216E-09  1.271608E-09  0.000000E+00
        94  1.271609E-09  2.543216E-09  0.000000E+00
        95  2.543217E-09  2.543216E-09  0.000000E+00
        96  3.814823E-09  2.543214E-09  0.000000E+00
        97  2.543217E-09  3.814823E-09  0.000000E+00
        98  2.543221E-09  4.020310E-09  2.231920E-01
        99  4.020318E-09  2.543214E-09  2.231920E-01
       100  2.543222E-09  2.543214E-09  2.231920E-01
       101  1.066126E-09  2.543215E-09  2.231920E-01
       102  2.543224E-09  1.066119E-09  2.231920E-01
       103  2.543213E-09  4.997299E-14  1.394950E-02
       104  1.271517E-09 -1.881536E-13  2.789901E-02
       105  2.543214E-09  3.141569E-14  2.789901E-02
       106  3.814911E-09 -1.898777E-13  2.789901E-02
       107  2.543216E-09 -7.040772E-13  4.184851E-02
       108  1.271271E-09  2.364780E-13  5.579801E-02
       109  2.543216E-09  4.517600E-13  5.579801E-02
       110  3.815165E-09  2.340437E-13  5.579801E-02
       111  2.543219E-09  1.353660E-12  6.974752E-02
       112  1.269349E-09 -1.186970E-12  8.369702E-02
       113  2.543222E-09  4.348606E-12  8.369702E-02
       114  3.817096E-09 -1.188245E-12  8.369702E-02
       115  2.543225E-09 -9.575137E-12  9.764652E-02
       116  1.263168E-09  3.191332E-12  1.115960E-01
       117  2.543226E-09  1.716689E-11  1.115960E-01
       118  3.823281E-09  3.190669E-12  1.115960E-01
       119  2.543225E-09  7.219951E-12  1.255455E-01
       120  1.229047E-09 -1.392879E-11  1.394950E-01
       121  2.543226E-09  7.445343E-11  1.394950E-01
       122  3.857404E-09 -1.393001E-11  1.394950E-01
       123  2.543225E-09 -1.204423E-10  1.534445E-01
       124  1.178052E-09  5.704461E-11  1.673940E-01
       125  2.543226E-09  2.726551E-10  1.673940E-01
       126  3.908400E-09  5.704348E-11  1.673940E-01
       127  2.543226E-09  2.648980E-11  1.813435E-01
       128  1.087409E-09  3.559384E-10  1.952930E-01
       129  2.543223E-09  1.111926E-09  1.952930E-01
       130  3.999040E-09  3.559371E-10  1.952930E-01
       131  2.543223E-09 -1.919443E-09  2.092425E-01
       132  5.086381E-09  2.543214E-09  1.394950E-02
       133  5.086622E-09  1.271518E-09  2.789901E-02
       134  5.086402E-09  2.543215E-09  2.789901E-02
       135  5.086623E-09  3.814912E-09  2.789901E-02
       136  5.087140E-09  2.543217E-09  4.184851E-02
       137  5.086202E-09  1.271271E-09  5.579801E-02
       138  5.085986E-09  2.543218E-09  5.579801E-02
       139  5.086204E-09  3.815165E-09  5.579801E-02
       140  5.085087E-09  2.543218E-09  6.974752E-02
       141  5.087630E-09  1.269347E-09  8.369702E-02
       142  5.082093E-09  2.543219E-09  8.369702E-02
       143  5.087631E-09  3.817092E-09  8.369702E-02
       144  5.096018E-09  2.543217E-09  9.764652E-02
       145  5.083251E-09  1.263159E-09  1.115960E-01
       146  5.069276E-09  2.543216E-09  1.115960E-01
       147  5.083252E-09  3.823271E-09  1.115960E-01
       148  5.079222E-09  2.543215E-09  1.255455E-01
       149  5.100370E-09  1.229036E-09  1.394950E-01
       150  5.011989E-09  2.543213E-09  1.394950E-01
       151  5.100371E-09  3.857392E-09  1.394950E-01
       152  5.206884E-09  2.543213E-09  1.534445E-01
       153  5.029396E-09  1.178038E-09  1.673940E-01
       154  4.813785E-09  2.543211E-09  1.673940E-01
       155  5.029397E-09  3.908386E-09  1.673940E-01
       156  5.059950E-09  2.543212E-09  1.813435E-01
       157  4.730500E-09  1.087401E-09  1.952930E-01
       158  3.974512E-09  2.543212E-09  1.952930E-01
       159  4.730503E-09  3.999027E-09  1.952930E-01
       160  7.005880E-09  2.543212E-09  2.092425E-01
       161  2.543217E-09  5.086382E-09  1.394950E-02
       162  3.814913E-09  5.086623E-09  2.789901E-02
       163  2.543216E-09  5.086402E-09  2.789901E-02
       164  1.271520E-09  5.086623E-09  2.789901E-02
       165  2.543219E-09  5.087141E-09  4.184851E-02
       166  3.815168E-09  5.086202E-09  5.579801E-02
       167  2.543221E-09  5.085987E-09  5.579801E-02
       168  1.271274E-09  5.086204E-09  5.579801E-02
       169  2.543223E-09  5.085086E-09  6.974752E-02
       170  3.817098E-09  5.087625E-09  8.369702E-02
       171  2.543227E-09  5.082091E-09  8.369702E-02
       172  1.269351E-09  5.087628E-09  8.369702E-02
       173  2.543227E-09  5.096012E-09  9.764652E-02
       174  3.823284E-09  5.083243E-09  1.115960E-01
       175  2.543228E-09  5.069267E-09  1.115960E-01
       176  1.263171E-09  5.083244E-09  1.115960E-01
       177  2.543228E-09  5.079213E-09  1.255455E-01
       178  3.857407E-09  5.100358E-09  1.394950E-01
       179  2.543229E-09  5.011977E-09  1.394950E-01
       180  1.229050E-09  5.100360E-09  1.394950E-01
       181  2.543228E-09  5.206871E-09  1.534445E-01
       182  3.908402E-09  5.029382E-09  1.673940E-01
       183  2.543229E-09  4.813771E-09  1.673940E-01
       184  1.178055E-09  5.029384E-09  1.673940E-01
       185  2.543229E-09  5.059938E-09  1.813435E-01
       186  3.999042E-09  4.730489E-09  1.952930E-01
       187  2.543227E-09  3.974503E-09  1.952930E-01
       188  1.087411E-09  4.730491E-09  1.952930E-01
       189  2.543225E-09  7.005871E-09  2.092425E-01
       190  5.034591E-14  2.543217E-09  1.394950E-02
       191 -1.894689E-13  3.814913E-09  2.789901E-02
       192  3.179887E-14  2.543218E-09  2.789901E-02
       193 -1.911136E-13  1.271525E-09  2.789901E-02
       194 -7.051400E-13  2.543220E-09  4.184851E-02
       195  2.358490E-13  3.815169E-09  5.579801E-02
       196  4.501414E-13  2.543221E-09  5.579801E-02
       197  2.337048E-13  1.271272E-09  5.579801E-02
       198  1.354571E-12  2.543222E-09  6.974752E-02
       199 -1.182450E-12  3.817094E-09  8.369702E-02
       200  4.352097E-12  2.543223E-09  8.369702E-02
       201 -1.185274E-12  1.269348E-09  8.369702E-02
       202 -9.567448E-12  2.543220E-09  9.764652E-02
       203  3.200900E-12  3.823274E-09  1.115960E-01
       204  1.717697E-11  2.543219E-09  1.115960E-01
       205  3.199227E-12  1.263163E-09  1.115960E-01
       206  7.230543E-12  2.543218E-09  1.255455E-01
       207 -1.391676E-11  3.857395E-09  1.394950E-01
       208  7.446568E-11  2.543216E-09  1.394950E-01
       209 -1.391789E-11  1.229039E-09  1.394950E-01
       210 -1.204301E-10  2.543215E-09  1.534445E-01
       211  5.705820E-11  3.908389E-09  1.673940E-01
       212  2.726688E-10  2.543215E-09  1.673940E-01
       213  5.705655E-11  1.178040E-09  1.673940E-01
       214  2.650202E-11  2.543215E-09  1.813435E-01
       215  3.559499E-10  3.999031E-09  1.952930E-01
       216  1.111936E-09  2.543216E-09  1.952930E-01
       217  3.559480E-10  1.087399E-09  1.952930E-01
       218 -1.919433E-09  2.543217E-09  2.092425E-01
       219  2.543215E-09  2.543216E-09  1.394950E-02
       220  2.543215E-09  1.271500E-09  2.789901E-02
       221  1.271498E-09  2.543218E-09  2.789901E-02
       222  2.543216E-09  2.543217E-09  2.789901E-02
       223  3.814933E-09  2.543216E-09  2.789901E-02
       224  2.543216E-09  3.814935E-09  2.789901E-02
       225  2.543218E-09  2.543218E-09  4.184851E-02
       226  2.543218E-09  1.272240E-09  5.579801E-02
       227  1.272240E-09  2.543220E-09  5.579801E-02
       228  2.543219E-09  2.543219E-09  5.579801E-02
       229  3.814198E-09  2.543219E-09  5.579801E-02
       230  2.543220E-09  3.814198E-09  5.579801E-02
       231  2.543221E-09  2.543220E-09  6.974752E-02
       232  2.543223E-09  1.272458E-09  8.369702E-02
       233  1.272462E-09  2.543220E-09  8.369702E-02
       234  2.543224E-09  2.543219E-09  8.369702E-02
       235  3.813985E-09  2.543219E-09  8.369702E-02
       236  2.543225E-09  3.813982E-09  8.369702E-02
       237  2.543225E-09  2.543218E-09  9.764652E-02
       238  2.543226E-09  1.284629E-09  1.115960E-01
       239  1.284637E-09  2.543218E-09  1.115960E-01
       240  2.543226E-09  2.543217E-09  1.115960E-01
       241  3.801814E-09  2.543217E-09  1.115960E-01
       242  2.543227E-09  3.801805E-09  1.115960E-01
       243  2.543227E-09  2.543216E-09  1.255455E-01
       244  2.543226E-09  1.294647E-09  1.394950E-01
       245  1.294658E-09  2.543216E-09  1.394950E-01
       246  2.543227E-09  2.543216E-09  1.394950E-01
       247  3.791795E-09  2.543214E-09  1.394950E-01
       248  2.543228E-09  3.791783E-09  1.394950E-01
       249  2.543227E-09  2.543214E-09  1.534445E-01
       250  2.543226E-09  1.453698E-09  1.673940E-01
       251  1.453712E-09  2.543214E-09  1.673940E-01
       252  2.543227E-09  2.543214E-09  1.673940E-01
       253  3.632742E-09  2.543213E-09  1.673940E-01
       254  2.543228E-09  3.632729E-09  1.673940E-01
       255  2.543227E-09  2.543213E-09  1.813435E-01
       256  2.543225E-09  1.691740E-09  1.952930E-01
       257  1.691751E-09  2.543215E-09  1.952930E-01
       258  2.543226E-09  2.543214E-09  1.952930E-01
       259  3.394700E-09  2.543213E-09  1.952930E-01
       260  2.543226E-09  3.394688E-09  1.952930E-01
       261  2.543223E-09  2.543215E-09  2.092425E-01

 stresses (elem, integ.pnt.,sxx,syy,szz,sxy,sxz,syz) for set EALL and time  0.1000000E+01

         1   1  1.631794E-09  1.631794E-09  1.000030E-02  1.671117E-15  1.262092E-13  1.264924E-13
         1   2  1.631806E-09  1.631852E-09  1.000030E-02 -7.779568E-15 -5.750927E-14  6.667868E-14
         1   3  1.631854E-09  1.631808E-09  1.000030E-02 -8.051765E-15  6.757188E-14 -5.778742E-14
         1   4  1.631795E-09  1.631795E-09  1.000030E-02  5.497533E-15 -9.157686E-14 -9.190318E-14
         1   5  1.631910E-09  1.631909E-09  1.000030E-02 -2.078439E-15  2.512090E-13  2.516495E-13
         1   6  1.631884E-09  1.631731E-09  1.000030E-02  3.266178E-14 -3.621013E-13  2.780828E-13
         1   7  1.631728E-09  1.631881E-09  1.000030E-02  3.304866E-14  2.784574E-13 -3.622676E-13
         1   8  1.631908E-09  1.631908E-09  1.000030E-02 -1.118159E-14 -1.881254E-13 -1.881320E-13
         2   1  1.631806E-09  1.631852E-09  1.000030E-02  8.311203E-15  5.686892E-14  6.682423E-14
         2   2  1.631794E-09  1.631795E-09  1.000030E-02 -1.677896E-15 -1.265851E-13  1.264047E-13
         2   3  1.631795E-09  1.631796E-09  1.000030E-02 -4.984666E-15  9.164604E-14 -9.171694E-14
         2   4  1.631851E-09  1.631804E-09  1.000030E-02  8.086871E-15 -6.667798E-14 -5.696198E-14
         2   5  1.631884E-09  1.631730E-09  1.000030E-02 -3.295058E-14  3.618902E-13  2.784378E-13
         2   6  1.631910E-09  1.631909E-09  1.000030E-02  1.896897E-15 -2.522840E-13  2.523924E-13
         2   7  1.631909E-09  1.631909E-09  1.000030E-02  1.101136E-14  1.884354E-13 -1.880886E-13
         2   8  1.631733E-09  1.631887E-09  1.000030E-02 -3.303459E-14 -2.780046E-13 -3.619438E-13
         3   1  1.631852E-09  1.631806E-09  1.000030E-02  8.072168E-15  6.744441E-14  5.775702E-14
         3   2  1.631796E-09  1.631796E-09  1.000030E-02 -5.402944E-15 -9.146360E-14  9.200385E-14
         3   3  1.631795E-09  1.631795E-09  1.000030E-02 -1.771084E-15  1.261147E-13 -1.264429E-13
         3   4  1.631807E-09  1.631853E-09  1.000030E-02  7.815811E-15 -5.734421E-14 -6.714045E-14
         3   5  1.631729E-09  1.631882E-09  1.000030E-02 -3.281267E-14  2.785610E-13  3.621652E-13
         3   6  1.631908E-09  1.631908E-09  1.000030E-02  1.139654E-14 -1.880124E-13  1.881938E-13
         3   7  1.631910E-09  1.631910E-09  1.000030E-02  2.113152E-15  2.517923E-13 -2.519734E-13
         3   8  1.631884E-09  1.631730E-09  1.000030E-02 -3.257103E-14 -3.621510E-13 -2.786179E-13
         4   1  1.631796E-09  1.631796E-09  1.000030E-02  5.119547E-15  9.175246E-14  9.188517E-14
         4   2  1.631852E-09  1.631806E-09  1.000030E-02 -8.002819E-15 -6.694005E-14  5.744980E-14
         4   3  1.631807E-09  1.631853E-09  1.000030E-02 -8.151892E-15  5.728012E-14 -6.702305E-14
         4   4  1.631794E-09  1.631794E-09  1.000030E-02  1.726307E-15 -1.267837E-13 -1.265229E-13
         4   5  1.631909E-09  1.631909E-09  1.000030E-02 -1.099744E-14  1.883047E-13  1.881062E-13
         4   6  1.631731E-09  1.631884E-09  1.000030E-02  3.298093E-14 -2.781684E-13  3.618523E-13
         4   7  1.631884E-09  1.631730E-09  1.000030E-02  3.311918E-14  3.619181E-13 -2.783257E-13
         4   8  1.631911E-09  1.631911E-09  1.000030E-02 -1.872893E-15 -2.516932E-13 -2.515322E-13
         5   1  1.632100E-09  1.632100E-09  1.000030E-02 -8.181439E-14  1.515910E-14  1.490988E-14
         5   2  1.632091E-09  1.632124E-09  1.000030E-02 -4.001493E-14  8.008736E-14 -2.047049E-13
         5   3  1.632123E-09  1.632090E-09  1.000030E-02 -4.006874E-14 -2.057755E-13  8.044295E-14
         5   4  1.632149E-09  1.632148E-09  1.000030E-02 -2.064779E-14 -7.545535E-14 -7.462510E-14
         5   5  1.631974E-09  1.631974E-09  1.000030E-02  4.370890E-13 -1.353045E-12 -1.353092E-12
         5   6  1.632063E-09  1.632268E-09  1.000030E-02  1.854591E-13  8.961560E-13 -4.270655E-13
         5   7  1.632271E-09  1.632066E-09  1.000030E-02  1.850941E-13 -4.275893E-13  8.962809E-13
         5   8  1.631653E-09  1.631653E-09  1.000030E-02  1.676682E-13  1.005875E-12  1.005990E-12
         6   1  1.632091E-09  1.632124E-09  1.000030E-02  3.949843E-14 -7.968952E-14 -2.048333E-13
         6   2  1.632100E-09  1.632101E-09  1.000030E-02  8.183968E-14 -1.492778E-14  1.533127E-14
         6   3  1.632151E-09  1.632150E-09  1.000030E-02  1.993523E-14  7.542867E-14 -7.464985E-14
         6   4  1.632125E-09  1.632092E-09  1.000030E-02  3.981998E-14  2.050289E-13  8.033806E-14
         6   5  1.632064E-09  1.632269E-09  1.000030E-02 -1.854279E-13 -8.957803E-13 -4.275788E-13
         6   6  1.631975E-09  1.631975E-09  1.000030E-02 -4.368265E-13  1.354027E-12 -1.354080E-12
         6   7  1.631653E-09  1.631653E-09  1.000030E-02 -1.674366E-13 -1.006183E-12  1.005785E-12
         6   8  1.632269E-09  1.632065E-09  1.000030E-02 -1.851490E-13  4.271209E-13  8.956718E-13
         7   1  1.632122E-09  1.632090E-09  1.000030E-02  3.980624E-14 -2.055494E-13 -8.048244E-14
         7   2  1.632150E-09  1.632150E-09  1.000030E-02  2.019791E-14 -7.526201E-14  7.480697E-14
         7   3  1.632100E-09  1.632100E-09  1.000030E-02  8.185635E-14  1.535401E-14 -1.528230E-14
         7   4  1.632090E-09  1.632124E-09  1.000030E-02  3.979129E-14  8.063820E-14  2.047052E-13
         7   5  1.632271E-09  1.632066E-09  1.000030E-02 -1.855055E-13 -4.276092E-13 -8.961754E-13
         7   6  1.631653E-09  1.631653E-09  1.000030E-02 -1.677187E-13  1.005752E-12 -1.006041E-12
         7   7  1.631973E-09  1.631973E-09  1.000030E-02 -4.368612E-13 -1.353373E-12  1.353316E-12
         7   8  1.632065E-09  1.632270E-09  1.000030E-02 -1.853879E-13  8.958503E-13  4.274762E-13
         8   1  1.632149E-09  1.632149E-09  1.000030E-02 -2.032639E-14  7.524041E-14  7.494548E-14
         8   2  1.632125E-09  1.632092E-09  1.000030E-02 -3.998658E-14  2.048759E-13 -8.029545E-14
         8   3  1.632091E-09  1.632124E-09  1.000030E-02 -3.992065E-14 -7.981380E-14  2.046970E-13
         8   4  1.632100E-09  1.632100E-09  1.000030E-02 -8.195942E-14 -1.532878E-14 -1.531059E-14
         8   5  1.631653E-09  1.631653E-09  1.000030E-02  1.678291E-13 -1.006224E-12 -1.005918E-12
         8   6  1.632269E-09  1.632064E-09  1.000030E-02  1.853488E-13  4.272754E-13 -8.956340E-13
         8   7  1.632063E-09  1.632269E-09  1.000030E-02  1.851064E-13 -8.961742E-13  4.274260E-13
         8   8  1.631975E-09  1.631975E-09  1.000030E-02  4.368303E-13  1.353906E-12  1.353618E-12
         9   1  1.630769E-09  1.630769E-09  1.000030E-02 -6.426755E-13  8.237462E-13  8.238743E-13
         9   2  1.630805E-09  1.631321E-09  1.000030E-02 -4.088590E-13  4.382403E-13 -3.092346E-13
         9   3  1.631320E-09  1.630804E-09  1.000030E-02 -4.087123E-13 -3.088481E-13  4.381704E-13
         9   4  1.631234E-09  1.631234E-09  1.000030E-02 -1.557242E-13 -3.064484E-13 -3.065760E-13
         9   5  1.632277E-09  1.632276E-09  1.000030E-02  9.443945E-13  2.325067E-12  2.324836E-12
         9   6  1.632161E-09  1.629652E-09  1.000030E-02  9.480387E-13 -4.743718E-12  3.764439E-12
         9   7  1.629650E-09  1.632159E-09  1.000030E-02  9.479563E-13  3.764730E-12 -4.743959E-12
         9   8  1.631751E-09  1.631750E-09  1.000030E-02  1.267100E-13 -1.810999E-12 -1.811508E-12
        10   1  1.630805E-09  1.631320E-09  1.000030E-02  4.089361E-13 -4.380845E-13 -3.092283E-13
        10   2  1.630769E-09  1.630769E-09  1.000030E-02  6.428243E-13 -8.236352E-13  8.235541E-13
        10   3  1.631234E-09  1.631235E-09  1.000030E-02  1.561340E-13  3.062725E-13 -3.065651E-13
        10   4  1.631318E-09  1.630802E-09  1.000030E-02  4.087126E-13  3.090955E-13  4.380408E-13
        10   5  1.632159E-09  1.629651E-09  1.000030E-02 -9.479266E-13  4.743293E-12  3.764802E-12
        10   6  1.632280E-09  1.632279E-09  1.000030E-02 -9.446488E-13 -2.324910E-12  2.325340E-12
        10   7  1.631749E-09  1.631749E-09  1.000030E-02 -1.264812E-13  1.811198E-12 -1.811145E-12
        10   8  1.629649E-09  1.632157E-09  1.000030E-02 -9.480348E-13 -3.764673E-12 -4.743270E-12
        11   1  1.631320E-09  1.630804E-09  1.000030E-02  4.087269E-13 -3.087477E-13 -4.381332E-13
        11   2  1.631234E-09  1.631235E-09  1.000030E-02  1.559525E-13 -3.065798E-13  3.065787E-13
        11   3  1.630767E-09  1.630767E-09  1.000030E-02  6.428398E-13  8.239819E-13 -8.236297E-13
        11   4  1.630805E-09  1.631320E-09  1.000030E-02  4.087564E-13  4.378934E-13  3.093087E-13
        11   5  1.629649E-09  1.632157E-09  1.000030E-02 -9.479079E-13  3.764870E-12  4.743696E-12
        11   6  1.631749E-09  1.631750E-09  1.000030E-02 -1.266334E-13 -1.810712E-12  1.811280E-12
        11   7  1.632275E-09  1.632276E-09  1.000030E-02 -9.443904E-13  2.324792E-12 -2.324637E-12
        11   8  1.632159E-09  1.629649E-09  1.000030E-02 -9.479467E-13 -4.743135E-12 -3.764306E-12
        12   1  1.631234E-09  1.631234E-09  1.000030E-02 -1.559961E-13  3.062298E-13  3.064636E-13
        12   2  1.631320E-09  1.630804E-09  1.000030E-02 -4.089068E-13  3.091638E-13 -4.380631E-13
        12   3  1.630803E-09  1.631319E-09  1.000030E-02 -4.089256E-13 -4.384855E-13  3.091028E-13
        12   4  1.630769E-09  1.630769E-09  1.000030E-02 -6.426645E-13 -8.237874E-13 -8.236435E-13
        12   5  1.631750E-09  1.631750E-09  1.000030E-02  1.267206E-13  1.811143E-12  1.811157E-12
        12   6  1.629649E-09  1.632157E-09  1.000030E-02  9.480210E-13 -3.764972E-12  4.743245E-12
        12   7  1.632156E-09  1.629648E-09  1.000030E-02  9.480554E-13  4.743547E-12 -3.764619E-12
        12   8  1.632276E-09  1.632276E-09  1.000030E-02  9.444655E-13 -2.325531E-12 -2.325393E-12
        13   1  1.634058E-09  1.634058E-09  1.000030E-02 -2.420850E-12  1.694813E-12  1.694529E-12
        13   2  1.633887E-09  1.635437E-09  1.000030E-02 -1.400193E-12  9.978083E-13 -3.359716E-12
        13   3  1.635436E-09  1.633886E-09  1.000030E-02 -1.400549E-12 -3.359221E-12  9.973786E-13
        13   4  1.635596E-09  1.635595E-09  1.000030E-02 -6.237218E-13 -1.459781E-12 -1.459986E-12
        13   5  1.634842E-09  1.634841E-09  1.000030E-02  7.856691E-12 -1.857374E-11 -1.857363E-11
        13   6  1.635076E-09  1.635323E-09  1.000030E-02  4.177625E-12  1.104028E-11 -2.500537E-12
        13   7  1.635322E-09  1.635076E-09  1.000030E-02  4.177809E-12 -2.500228E-12  1.104032E-11
        13   8  1.628397E-09  1.628397E-09  1.000030E-02  2.686465E-12  1.143798E-11  1.143812E-11
        14   1  1.633885E-09  1.635436E-09  1.000030E-02  1.400498E-12 -9.981492E-13 -3.359348E-12
        14   2  1.634059E-09  1.634060E-09  1.000030E-02  2.420857E-12 -1.695070E-12  1.695110E-12
        14   3  1.635595E-09  1.635594E-09  1.000030E-02  6.237988E-13  1.459750E-12 -1.459848E-12
        14   4  1.635435E-09  1.633884E-09  1.000030E-02  1.400572E-12  3.359583E-12  9.976486E-13
        14   5  1.635076E-09  1.635324E-09  1.000030E-02 -4.177919E-12 -1.104023E-11 -2.500646E-12
        14   6  1.634841E-09  1.634841E-09  1.000030E-02 -7.856735E-12  1.857343E-11 -1.857390E-11
        14   7  1.628397E-09  1.628397E-09  1.000030E-02 -2.686964E-12 -1.143813E-11  1.143803E-11
        14   8  1.635322E-09  1.635075E-09  1.000030E-02 -4.177850E-12  2.500782E-12  1.104054E-11
        15   1  1.635436E-09  1.633884E-09  1.000030E-02  1.400432E-12 -3.359311E-12 -9.978199E-13
        15   2  1.635595E-09  1.635596E-09  1.000030E-02  6.235599E-13 -1.459757E-12  1.459885E-12
        15   3  1.634058E-09  1.634058E-09  1.000030E-02  2.420936E-12  1.694432E-12 -1.694331E-12
        15   4  1.633886E-09  1.635436E-09  1.000030E-02  1.400479E-12  9.974435E-13  3.359405E-12
        15   5  1.635321E-09  1.635073E-09  1.000030E-02 -4.177655E-12 -2.500426E-12 -1.104016E-11
        15   6  1.628397E-09  1.628397E-09  1.000030E-02 -2.686629E-12  1.143788E-11 -1.143799E-11
        15   7  1.634841E-09  1.634842E-09  1.000030E-02 -7.856827E-12 -1.857354E-11  1.857343E-11
        15   8  1.635075E-09  1.635323E-09  1.000030E-02 -4.177871E-12  1.104029E-11  2.500493E-12
        16   1  1.635595E-09  1.635596E-09  1.000030E-02 -6.236960E-13  1.459815E-12  1.459848E-12
        16   2  1.635435E-09  1.633885E-09  1.000030E-02 -1.400207E-12  3.359563E-12 -9.981256E-13
        16   3  1.633884E-09  1.635435E-09  1.000030E-02 -1.400592E-12 -9.975902E-13  3.359584E-12
        16   4  1.634058E-09  1.634058E-09  1.000030E-02 -2.420932E-12 -1.694230E-12 -1.694292E-12
        16   5  1.628398E-09  1.628398E-09  1.000030E-02  2.686287E-12 -1.143805E-11 -1.143795E-11
        16   6  1.635322E-09  1.635074E-09  1.000030E-02  4.177633E-12  2.500749E-12 -1.104020E-11
        16   7  1.635076E-09  1.635323E-09  1.000030E-02  4.177777E-12 -1.104043E-11  2.500691E-12
        16   8  1.634841E-09  1.634841E-09  1.000030E-02  7.856845E-12  1.857340E-11  1.857346E-11
        17   1  1.616943E-09  1.616943E-09  1.000030E-02 -1.222986E-11  1.254332E-11  1.254324E-11
        17   2  1.617248E-09  1.626891E-09  1.000030E-02 -7.883845E-12  5.048140E-12 -6.251931E-12
        17   3  1.626890E-09  1.617247E-09  1.000030E-02 -7.883892E-12 -6.252005E-12  5.048458E-12
        17   4  1.625705E-09  1.625704E-09  1.000030E-02 -3.135638E-12 -3.380424E-12 -3.380460E-12
        17   5  1.636586E-09  1.636586E-09  1.000030E-02  1.826392E-11  2.775519E-11  2.775519E-11
        17   6  1.638503E-09  1.605101E-09  1.000030E-02  1.422372E-11 -5.470099E-11  4.417910E-11
        17   7  1.605101E-09  1.638502E-09  1.000030E-02  1.422358E-11  4.417889E-11 -5.470111E-11
        17   8  1.628493E-09  1.628493E-09  1.000030E-02  3.276037E-12 -2.144836E-11 -2.144797E-11
        18   1  1.617247E-09  1.626890E-09  1.000030E-02  7.884125E-12 -5.047918E-12 -6.252206E-12
        18   2  1.616944E-09  1.616943E-09  1.000030E-02  1.222948E-11 -1.254298E-11  1.254311E-11
        18   3  1.625701E-09  1.625702E-09  1.000030E-02  3.135821E-12  3.380517E-12 -3.380762E-12
        18   4  1.626890E-09  1.617247E-09  1.000030E-02  7.883668E-12  6.252014E-12  5.047893E-12
        18   5  1.638503E-09  1.605101E-09  1.000030E-02 -1.422329E-11  5.470141E-11  4.417908E-11
        18   6  1.636587E-09  1.636587E-09  1.000030E-02 -1.826408E-11 -2.775534E-11  2.775522E-11
        18   7  1.628495E-09  1.628495E-09  1.000030E-02 -3.275837E-12  2.144850E-11 -2.144788E-11
        18   8  1.605103E-09  1.638504E-09  1.000030E-02 -1.422358E-11 -4.417882E-11 -5.470103E-11
        19   1  1.626890E-09  1.617246E-09  1.000030E-02  7.883994E-12 -6.252236E-12 -5.047893E-12
        19   2  1.625703E-09  1.625702E-09  1.000030E-02  3.135643E-12 -3.380667E-12  3.380612E-12
        19   3  1.616945E-09  1.616944E-09  1.000030E-02  1.222961E-11  1.254331E-11 -1.254345E-11
        19   4  1.617247E-09  1.626891E-09  1.000030E-02  7.883740E-12  5.048005E-12  6.252243E-12
        19   5  1.605101E-09  1.638503E-09  1.000030E-02 -1.422336E-11  4.417880E-11  5.470117E-11
        19   6  1.628493E-09  1.628492E-09  1.000030E-02 -3.275955E-12 -2.144851E-11  2.144830E-11
        19   7  1.636587E-09  1.636587E-09  1.000030E-02 -1.826392E-11  2.775513E-11 -2.775520E-11
        19   8  1.638503E-09  1.605101E-09  1.000030E-02 -1.422347E-11 -5.470128E-11 -4.417918E-11
        20   1  1.625701E-09  1.625701E-09  1.000030E-02 -3.135874E-12  3.380592E-12  3.380664E-12
        20   2  1.626890E-09  1.617246E-09  1.000030E-02 -7.883772E-12  6.252172E-12 -5.047906E-12
        20   3  1.617248E-09  1.626891E-09  1.000030E-02 -7.883820E-12 -5.048356E-12  6.252185E-12
        20   4  1.616941E-09  1.616941E-09  1.000030E-02 -1.222948E-11 -1.254339E-11 -1.254364E-11
        20   5  1.628492E-09  1.628492E-09  1.000030E-02  3.275946E-12  2.144844E-11  2.144813E-11
        20   6  1.605100E-09  1.638503E-09  1.000030E-02  1.422364E-11 -4.417886E-11  5.470083E-11
        20   7  1.638503E-09  1.605101E-09  1.000030E-02  1.422352E-11  5.470139E-11 -4.417933E-11
        20   8  1.636584E-09  1.636584E-09  1.000030E-02  1.826386E-11 -2.775545E-11 -2.775544E-11
        21   1  1.656835E-09  1.656835E-09  1.000030E-02 -3.403032E-11  1.869837E-11  1.869833E-11