
 displacements (vx,vy,vz) for set N1 and time  0.1000000E-05

       100  7.638031E-15  8.754578E-02 -5.760685E-04

 internal energy density (elem, integ.pnt.,eneset EALL and time  0.1000000E-05

         1   1  2.349393E-01
         1   2  2.220491E-01
         1   3  1.715704E-02
         1   4  1.568133E-02
         1   5  2.309821E-01
         1   6  2.460471E-01
         1   7  1.868574E-02
         1   8  1.941335E-02
         2   1  2.220491E-01
         2   2  2.349393E-01
         2   3  1.568133E-02
         2   4  1.715704E-02
         2   5  2.460471E-01
         2   6  2.309821E-01
         2   7  1.941335E-02
         2   8  1.868574E-02
         3   1  1.736653E-02
         3   2  1.588930E-02
         3   3  2.351725E-01
         3   4  2.223204E-01
         3   5  1.876643E-02
         3   6  1.956052E-02
         3   7  2.312376E-01
         3   8  2.465841E-01
         4   1  1.588930E-02
         4   2  1.736653E-02
         4   3  2.223204E-01
         4   4  2.351725E-01
         4   5  1.956052E-02
         4   6  1.876643E-02
         4   7  2.465841E-01
         4   8  2.312376E-01
         5   1  1.993699E-01
         5   2  1.923257E-01
         5   3  1.524890E-02
         5   4  1.473747E-02
         5   5  1.686153E-01
         5   6  1.712283E-01
         5   7  1.373544E-02
         5   8  1.371598E-02
         6   1  1.923257E-01
         6   2  1.993699E-01
         6   3  1.473747E-02
         6   4  1.524890E-02
         6   5  1.712283E-01
         6   6  1.686153E-01
         6   7  1.371598E-02
         6   8  1.373544E-02
         7   1  1.539787E-02
         7   2  1.492430E-02
         7   3  1.993715E-01
         7   4  1.924263E-01
         7   5  1.379251E-02
         7   6  1.380629E-02
         7   7  1.686218E-01
         7   8  1.713603E-01
         8   1  1.492430E-02
         8   2  1.539787E-02
         8   3  1.924263E-01
         8   4  1.993715E-01
         8   5  1.380629E-02
         8   6  1.379251E-02
         8   7  1.713603E-01
         8   8  1.686218E-01
         9   1  1.429257E-01
         9   2  1.416906E-01
         9   3  1.117300E-02
         9   4  1.083026E-02
         9   5  1.182117E-01
         9   6  1.184319E-01
         9   7  9.862982E-03
         9   8  9.549367E-03
        10   1  1.416906E-01
        10   2  1.429257E-01
        10   3  1.083026E-02
        10   4  1.117300E-02
        10   5  1.184319E-01
        10   6  1.182117E-01
        10   7  9.549367E-03
        10   8  9.862982E-03
        11   1  1.121998E-02
        11   2  1.089971E-02
        11   3  1.428318E-01
        11   4  1.416790E-01
        11   5  9.876729E-03
        11   6  9.580779E-03
        11   7  1.181174E-01
        11   8  1.184048E-01
        12   1  1.089971E-02
        12   2  1.121998E-02
        12   3  1.416790E-01
        12   4  1.428318E-01
        12   5  9.580779E-03
        12   6  9.876729E-03
        12   7  1.184048E-01
        12   8  1.181174E-01
        13   1  9.898407E-02
        13   2  9.875988E-02
        13   3  8.128841E-03
        13   4  7.865116E-03
        13   5  7.711490E-02
        13   6  7.706049E-02
        13   7  6.752354E-03
        13   8  6.462309E-03
        14   1  9.875988E-02
        14   2  9.898407E-02
        14   3  7.865116E-03
        14   4  8.128841E-03
        14   5  7.706049E-02
        14   6  7.711490E-02
        14   7  6.462309E-03
        14   8  6.752354E-03
        15   1  8.125392E-03
        15   2  7.876765E-03
        15   3  9.884454E-02
        15   4  9.867496E-02
        15   5  6.735109E-03
        15   6  6.455393E-03
        15   7  7.697297E-02
        15   8  7.695458E-02
        16   1  7.876765E-03
        16   2  8.125392E-03
        16   3  9.867496E-02
        16   4  9.884454E-02
        16   5  6.455393E-03
        16   6  6.735109E-03
        16   7  7.695458E-02
        16   8  7.697297E-02
        17   1  6.199731E-02
        17   2  6.194340E-02
        17   3  5.603744E-03
        17   4  5.324188E-03
        17   5  4.496181E-02
        17   6  4.487205E-02
        17   7  4.391266E-03
        17   8  4.122775E-03
        18   1  6.194340E-02
        18   2  6.199731E-02
        18   3  5.324188E-03
        18   4  5.603744E-03
        18   5  4.487205E-02
        18   6  4.496181E-02
        18   7  4.122775E-03
        18   8  4.391266E-03
        19   1  5.579581E-03
        19   2  5.306390E-03
        19   3  6.184028E-02
        19   4  6.181263E-02
        19   5  4.361508E-03
        19   6  4.097764E-03
        19   7  4.481597E-02
        19   8  4.474024E-02
        20   1  5.306390E-03
        20   2  5.579581E-03
        20   3  6.181263E-02
        20   4  6.184028E-02
        20   5  4.097764E-03
        20   6  4.361508E-03
        20   7  4.474024E-02
        20   8  4.481597E-02
        21   1  3.365702E-02
        21   2  3.365255E-02
        21   3  3.608233E-03
        21   4  3.309135E-03
        21   5  2.158995E-02
        21   6  2.145062E-02
        21   7  2.670031E-03
        21   8  2.412875E-03
        22   1  3.365255E-02
        22   2  3.365702E-02
        22   3  3.309135E-03
        22   4  3.608233E-03
        22   5  2.145062E-02
        22   6  2.158995E-02
        22   7  2.412875E-03
        22   8  2.670031E-03
        23   1  3.577690E-03
        23   2  3.280752E-03
        23   3  3.351509E-02
        23   4  3.352294E-02
        23   5  2.636937E-03
        23   6  2.384121E-03
        23   7  2.147052E-02
        23   8  2.133426E-02
        24   1  3.280752E-03
        24   2  3.577690E-03
        24   3  3.352294E-02
        24   4  3.351509E-02
        24   5  2.384121E-03
        24   6  2.636937E-03
        24   7  2.133426E-02
        24   8  2.147052E-02
        25   1  1.381789E-02
        25   2  1.380581E-02
        25   3  2.303680E-03
        25   4  1.981112E-03
        25   5  6.973151E-03
        25   6  6.787576E-03
        25   7  1.426866E-03
        25   8  1.207149E-03
        26   1  1.380581E-02
        26   2  1.381789E-02
        26   3  1.981112E-03
        26   4  2.303680E-03
        26   5  6.787576E-03
        26   6  6.973151E-03
        26   7  1.207149E-03
        26   8  1.426866E-03
        27   1  2.278883E-03
        27   2  1.955416E-03
        27   3  1.371290E-02
        27   4  1.370669E-02
        27   5  1.412899E-03
        27   6  1.188346E-03
        27   7  6.887539E-03
        27   8  6.705976E-03
        28   1  1.955416E-03
        28   2  2.278883E-03
        28   3  1.370669E-02
        28   4  1.371290E-02
        28   5  1.188346E-03
        28   6  1.412899E-03
        28   7  6.705976E-03
        28   8  6.887539E-03
        29   1  2.536240E-03
        29   2  2.701314E-03
        29   3  1.709187E-03
        29   4  1.271545E-03
        29   5  1.417269E-03
        29   6  5.215870E-04
        29   7  1.557967E-03
        29   8  6.233108E-04
        30   1  2.701314E-03
        30   2  2.536240E-03
        30   3  1.271545E-03
        30   4  1.709187E-03
        30   5  5.215870E-04
        30   6  1.417269E-03
        30   7  6.233108E-04
        30   8  1.557967E-03
        31   1  1.701318E-03
        31   2  1.265391E-03
        31   3  2.495570E-03
        31   4  2.663279E-03
        31   5  1.530720E-03
        31   6  6.176079E-04
        31   7  1.388756E-03
        31   8  5.179249E-04
        32   1  1.265391E-03
        32   2  1.701318E-03
        32   3  2.663279E-03
        32   4  2.495570E-03
        32   5  6.176079E-04
        32   6  1.530720E-03
        32   7  5.179249E-04
        32   8  1.388756E-03

 displacements (vx,vy,vz) for set N1 and time  0.2000000E-05

       100 -3.533819E-08  8.842811E-02 -5.878030E-04

 internal energy density (elem, integ.pnt.,eneset EALL and time  0.2000000E-05

         1   1  4.699194E-01
         1   2  4.441495E-01
         1   3  3.431598E-02
         1   4  3.137472E-02
         1   5  4.618489E-01
         1   6  4.919692E-01
         1   7  3.738654E-02
         1   8  3.884027E-02
         2   1  4.441495E-01
         2   2  4.699194E-01
         2   3  3.137471E-02
         2   4  3.431598E-02
         2   5  4.919692E-01
         2   6  4.618490E-01
         2   7  3.884027E-02
         2   8  3.738654E-02
         3   1  3.471180E-02
         3   2  3.176935E-02
         3   3  4.702889E-01
         3   4  4.446022E-01
         3   5  3.751993E-02
         3   6  3.910460E-02
         3   7  4.622587E-01
         3   8  4.929340E-01
         4   1  3.176935E-02
         4   2  3.471180E-02
         4   3  4.446022E-01
         4   4  4.702888E-01
         4   5  3.910459E-02
         4   6  3.751990E-02
         4   7  4.929340E-01
         4   8  4.622587E-01
         5   1  3.984681E-01
         5   2  3.843949E-01
         5   3  3.050041E-02
         5   4  2.947379E-02
         5   5  3.368269E-01
         5   6  3.420322E-01
         5   7  2.746482E-02
         5   8  2.742448E-02
         6   1  3.843949E-01
         6   2  3.984681E-01
         6   3  2.947380E-02
         6   4  3.050043E-02
         6   5  3.420322E-01
         6   6  3.368271E-01
         6   7  2.742448E-02
         6   8  2.746482E-02
         7   1  3.077148E-02
         7   2  2.982132E-02
         7   3  3.983704E-01
         7   4  3.844986E-01
         7   5  2.755118E-02
         7   6  2.757690E-02
         7   7  3.367377E-01
         7   8  3.421921E-01
         8   1  2.982131E-02
         8   2  3.077147E-02
         8   3  3.844986E-01
         8   4  3.983703E-01
         8   5  2.757688E-02
         8   6  2.755110E-02
         8   7  3.421920E-01
         8   8  3.367375E-01
         9   1  2.852932E-01
         9   2  2.828411E-01
         9   3  2.233362E-02
         9   4  2.164219E-02
         9   5  2.359446E-01
         9   6  2.363449E-01
         9   7  1.968673E-02
         9   8  1.906611E-02
        10   1  2.828412E-01
        10   2  2.852933E-01
        10   3  2.164219E-02
        10   4  2.233362E-02
        10   5  2.363451E-01
        10   6  2.359448E-01
        10   7  1.906610E-02
        10   8  1.968671E-02
        11   1  2.239980E-02
        11   2  2.175317E-02
        11   3  2.850016E-01
        11   4  2.827145E-01
        11   5  1.968470E-02
        11   6  1.909951E-02
        11   7  2.356480E-01
        11   8  2.361813E-01
        12   1  2.175314E-02
        12   2  2.239964E-02
        12   3  2.827145E-01
        12   4  2.850010E-01
        12   5  1.909949E-02
        12   6  1.968463E-02
        12   7  2.361816E-01
        12   8  2.356480E-01
        13   1  1.975105E-01
        13   2  1.970832E-01
        13   3  1.622721E-02
        13   4  1.569566E-02
        13   5  1.545731E-01
        13   6  1.543814E-01
        13   7  1.342208E-02
        13   8  1.287628E-02
        14   1  1.970825E-01
        14   2  1.975103E-01
        14   3  1.569564E-02
        14   4  1.622726E-02
        14   5  1.543809E-01
        14   6  1.545735E-01
        14   7  1.287624E-02
        14   8  1.342178E-02
        15   1  1.619089E-02
        15   2  1.568917E-02
        15   3  1.971201E-01
        15   4  1.968027E-01
        15   5  1.335637E-02
        15   6  1.283187E-02
        15   7  1.541742E-01
        15   8  1.540541E-01
        16   1  1.568917E-02
        16   2  1.619105E-02
        16   3  1.968020E-01
        16   4  1.971212E-01
        16   5  1.283193E-02
        16   6  1.335635E-02
        16   7  1.540534E-01
        16   8  1.541748E-01
        17   1  1.249052E-01
        17   2  1.248126E-01
        17   3  1.116537E-02
        17   4  1.062198E-02
        17   5  9.287953E-02
        17   6  9.260471E-02
        17   7  8.659028E-03
        17   8  8.217130E-03
        18   1  1.248137E-01
        18   2  1.249038E-01
        18   3  1.062207E-02
        18   4  1.116544E-02
        18   5  9.260503E-02
        18   6  9.287585E-02
        18   7  8.216924E-03
        18   8  8.658638E-03
        19   1  1.108663E-02
        19   2  1.055514E-02
        19   3  1.244714E-01
        19   4  1.244328E-01
        19   5  8.566264E-03
        19   6  8.135783E-03
        19   7  9.246364E-02
        19   8  9.221472E-02
        20   1  1.055514E-02
        20   2  1.108571E-02
        20   3  1.244348E-01
        20   4  1.244672E-01
        20   5  8.135799E-03
        20   6  8.566514E-03
        20   7  9.221674E-02
        20   8  9.246120E-02
        21   1  7.142301E-02
        21   2  7.147034E-02
        21   3  7.161658E-03
        21   4  6.627889E-03
        21   5  5.023514E-02
        21   6  4.982688E-02
        21   7  5.270385E-03
        21   8  4.903866E-03
        22   1  7.146726E-02
        22   2  7.142578E-02
        22   3  6.627583E-03
        22   4  7.162170E-03
        22   5  4.982417E-02
        22   6  5.023770E-02
        22   7  4.903720E-03
        22   8  5.269671E-03
        23   1  7.067926E-03
        23   2  6.538586E-03
        23   3  7.100528E-02
        23   4  7.109176E-02
        23   5  5.164299E-03
        23   6  4.806860E-03
        23   7  4.985362E-02
        23   8  4.945222E-02
        24   1  6.538530E-03
        24   2  7.070275E-03
        24   3  7.108723E-02
        24   4  7.102420E-02
        24   5  4.807661E-03
        24   6  5.165586E-03
        24   7  4.945009E-02
        24   8  4.987537E-02
        25   1  3.528086E-02
        25   2  3.522528E-02
        25   3  4.847618E-03
        25   4  4.224045E-03
        25   5  2.313050E-02
        25   6  2.269199E-02
        25   7  3.163814E-03
        25   8  2.757173E-03
        26   1  3.522825E-02
        26   2  3.527132E-02
        26   3  4.222021E-03
        26   4  4.836121E-03
        26   5  2.269345E-02
        26   6  2.312703E-02
        26   7  2.759712E-03
        26   8  3.176335E-03
        27   1  4.762329E-03
        27   2  4.136672E-03
        27   3  3.490981E-02
        27   4  3.487602E-02
        27   5  3.086338E-03
        27   6  2.669108E-03
        27   7  2.275203E-02
        27   8  2.232889E-02
        28   1  4.136735E-03
        28   2  4.752699E-03
        28   3  3.488442E-02
        28   4  3.487440E-02
        28   5  2.668324E-03
        28   6  3.076525E-03
        28   7  2.233874E-02
        28   8  2.273763E-02
        29   1  1.043809E-02
        29   2  1.157512E-02
        29   3  5.894944E-03
        29   4  4.188810E-03
        29   5  1.126617E-02
        29   6  3.955197E-03
        29   7  1.043575E-02
        29   8  3.734424E-03
        30   1  1.157184E-02
        30   2  1.043573E-02
        30   3  4.200468E-03
        30   4  5.956555E-03
        30   5  3.954820E-03
        30   6  1.126929E-02
        30   7  3.733307E-03
        30   8  1.042793E-02
        31   1  5.858503E-03
        31   2  4.167539E-03
        31   3  1.019504E-02
        31   4  1.137169E-02
        31   5  1.023676E-02
        31   6  3.691291E-03
        31   7  1.103193E-02
        31   8  3.942466E-03
        32   1  4.166258E-03
        32   2  5.898312E-03
        32   3  1.136858E-02
        32   4  1.023505E-02
        32   5  3.689506E-03
        32   6  1.023881E-02
        32   7  3.940279E-03
        32   8  1.103429E-02

 displacements (vx,vy,vz) for set N1 and time  0.3000000E-05

       100 -4.373566E-08  9.036030E-02 -6.164508E-04

 internal energy density (elem, integ.pnt.,eneset EALL and time  0.3000000E-05

         1   1  4.691667E-01
         1   2  4.435166E-01
         1   3  3.425616E-02
         1   4  3.137598E-02
         1   5  4.600643E-01
         1   6  4.901142E-01
         1   7  3.737749E-02
         1   8  3.881753E-02
         2   1  4.435166E-01
         2   2  4.691672E-01
         2   3  3.137600E-02
         2   4  3.425633E-02
         2   5  4.901142E-01
         2   6  4.600646E-01
         2   7  3.881753E-02
         2   8  3.737748E-02
         3   1  3.453647E-02
         3   2  3.166405E-02
         3   3  4.690581E-01
         3   4  4.435247E-01
         3   5  3.737633E-02
         3   6  3.893631E-02
         3   7  4.599874E-01
         3   8  4.905519E-01
         4   1  3.166402E-02
         4   2  3.453647E-02
         4   3  4.435246E-01
         4   4  4.690579E-01
         4   5  3.893625E-02
         4   6  3.737608E-02
         4   7  4.905516E-01
         4   8  4.599868E-01
         5   1  3.961731E-01
         5   2  3.821198E-01
         5   3  3.042766E-02
         5   4  2.939266E-02
         5   5  3.341997E-01
         5   6  3.393607E-01
         5   7  2.734288E-02
         5   8  2.729368E-02
         6   1  3.821200E-01
         6   2  3.961735E-01
         6   3  2.939267E-02
         6   4  3.042768E-02
         6   5  3.393608E-01
         6   6  3.341999E-01
         6   7  2.729366E-02
         6   8  2.734279E-02
         7   1  3.057409E-02
         7   2  2.961886E-02
         7   3  3.956142E-01
         7   4  3.817756E-01
         7   5  2.731179E-02
         7   6  2.732557E-02
         7   7  3.336782E-01
         7   8  3.390785E-01
         8   1  2.961882E-02
         8   2  3.057387E-02
         8   3  3.817756E-01
         8   4  3.956137E-01
         8   5  2.732553E-02
         8   6  2.731158E-02
         8   7  3.390785E-01
         8   8  3.336780E-01
         9   1  2.829630E-01
         9   2  2.804560E-01
         9   3  2.218317E-02
         9   4  2.149987E-02
         9   5  2.350902E-01
         9   6  2.354393E-01
         9   7  1.949084E-02
         9   8  1.890494E-02
        10   1  2.804558E-01
        10   2  2.829631E-01
        10   3  2.149984E-02
        10   4  2.218307E-02
        10   5  2.354389E-01
        10   6  2.350895E-01
        10   7  1.890489E-02
        10   8  1.949057E-02
        11   1  2.213960E-02
        11   2  2.150125E-02
        11   3  2.822676E-01
        11   4  2.799260E-01
        11   5  1.938734E-02
        11   6  1.883629E-02
        11   7  2.344163E-01
        11   8  2.348966E-01
        12   1  2.150124E-02
        12   2  2.213956E-02
        12   3  2.799259E-01
        12   4  2.822680E-01
        12   5  1.883630E-02
        12   6  1.938733E-02
        12   7  2.348965E-01
        12   8  2.344167E-01
        13   1  1.987685E-01
        13   2  1.982280E-01
        13   3  1.608675E-02
        13   4  1.562074E-02
        13   5  1.600255E-01
        13   6  1.597980E-01
        13   7  1.339682E-02
        13   8  1.294789E-02
        14   1  1.982282E-01
        14   2  1.987678E-01
        14   3  1.562066E-02
        14   4  1.608631E-02
        14   5  1.597978E-01
        14   6  1.600235E-01
        14   7  1.294777E-02
        14   8  1.339636E-02
        15   1  1.595756E-02
        15   2  1.552182E-02
        15   3  1.980284E-01
        15   4  1.975981E-01
        15   5  1.324746E-02
        15   6  1.282066E-02
        15   7  1.593031E-01
        15   8  1.591513E-01
        16   1  1.552187E-02
        16   2  1.595753E-02
        16   3  1.975989E-01
        16   4  1.980284E-01
        16   5  1.282073E-02
        16   6  1.324771E-02
        16   7  1.591523E-01
        16   8  1.593040E-01
        17   1  1.345145E-01
        17   2  1.343273E-01
        17   3  1.130620E-02
        17   4  1.091091E-02
        17   5  1.078760E-01
        17   6  1.076746E-01
        17   7  9.260783E-03
        17   8  8.922795E-03
        18   1  1.343259E-01
        18   2  1.345135E-01
        18   3  1.091067E-02
        18   4  1.130538E-02
        18   5  1.076739E-01
        18   6  1.078773E-01
        18   7  8.922866E-03
        18   8  9.260915E-03
        19   1  1.114951E-02
        19   2  1.076850E-02
        19   3  1.337799E-01
        19   4  1.336548E-01
        19   5  9.098398E-03
        19   6  8.773550E-03
        19   7  1.071804E-01
        19   8  1.070170E-01
        20   1  1.076857E-02
        20   2  1.115059E-02
        20   3  1.336535E-01
        20   4  1.337856E-01
        20   5  8.773482E-03
        20   6  9.098477E-03
        20   7  1.070158E-01
        20   8  1.071854E-01
        21   1  9.033620E-02
        21   2  9.043324E-02
        21   3  7.931195E-03
        21   4  7.569550E-03
        21   5  7.013612E-02
        21   6  6.996461E-02
        21   7  6.558486E-03
        21   8  6.224230E-03
        22   1  9.043610E-02
        22   2  9.033311E-02
        22   3  7.569953E-03
        22   4  7.930959E-03
        22   5  6.996823E-02
        22   6  7.013672E-02
        22   7  6.224481E-03
        22   8  6.558882E-03
        23   1  7.776167E-03
        23   2  7.420566E-03
        23   3  8.966110E-02
        23   4  8.979144E-02
        23   5  6.400145E-03
        23   6  6.081349E-03
        23   7  6.953170E-02
        23   8  6.937029E-02
        24   1  7.420754E-03
        24   2  7.774829E-03
        24   3  8.979569E-02
        24   4  8.964329E-02
        24   5  6.080657E-03
        24   6  6.398315E-03
        24   7  6.937088E-02
        24   8  6.950351E-02
        25   1  5.303588E-02
        25   2  5.335350E-02
        25   3  6.236843E-03
        25   4  5.651626E-03
        25   5  3.163335E-02
        25   6  3.131807E-02
        25   7  5.175481E-03
        25   8  4.466212E-03
        26   1  5.335331E-02
        26   2  5.305354E-02
        26   3  5.653948E-03
        26   4  6.249964E-03
        26   5  3.131804E-02
        26   6  3.164451E-02
        26   7  4.464230E-03
        26   8  5.166850E-03
        27   1  6.106527E-03
        27   2  5.516426E-03
        27   3  5.248700E-02
        27   4  5.283499E-02
        27   5  5.089341E-03
        27   6  4.363055E-03
        27   7  3.119409E-02
        27   8  3.089395E-02
        28   1  5.515782E-03
        28   2  6.113368E-03
        28   3  5.282569E-02
        28   4  5.252080E-02
        28   5  4.367541E-03
        28   6  5.107081E-03
        28   7  3.088355E-02
        28   8  3.120669E-02
        29   1  1.242092E-02
        29   2  1.312262E-02
        29   3  7.117747E-03
        29   4  5.381175E-03
        29   5  4.789052E-03
        29   6  1.949403E-03
        29   7  5.818496E-03
        29   8  2.510730E-03
        30   1  1.312568E-02
        30   2  1.242316E-02
        30   3  5.371514E-03
        30   4  7.070694E-03
        30   5  1.950228E-03
        30   6  4.788842E-03
        30   7  2.512277E-03
        30   8  5.828888E-03
        31   1  7.078040E-03
        31   2  5.339547E-03
        31   3  1.222203E-02
        31   4  1.291466E-02
        31   5  5.714117E-03
        31   6  2.492029E-03
        31   7  4.670617E-03
        31   8  1.922357E-03
        32   1  5.341998E-03
        32   2  7.055052E-03
        32   3  1.291685E-02
        32   4  1.218165E-02
        32   5  2.494036E-03
        32   6  5.719500E-03
        32   7  1.926930E-03
        32   8  4.674270E-03

 displacements (vx,vy,vz) for set N1 and time  0.4000000E-05

       100  1.121900E-08  9.268735E-02 -6.548940E-04

 internal energy density (elem, integ.pnt.,eneset EALL and time  0.4000000E-05

         1   1  4.612468E-01
         1   2  4.360616E-01
         1   3  3.372991E-02
         1   4  3.091946E-02
         1   5  4.519885E-01
         1   6  4.814889E-01
         1   7  3.679114E-02
         1   8  3.821198E-02
         2   1  4.360619E-01
         2   2  4.612484E-01
         2   3  3.091953E-02
         2   4  3.373035E-02
         2   5  4.814888E-01
         2   6  4.519889E-01
         2   7  3.821198E-02
         2   8  3.679115E-02
         3   1  3.382031E-02
         3   2  3.103133E-02
         3   3  4.603775E-01
         3   4  4.353586E-01
         3   5  3.658159E-02
         3   6  3.810240E-02
         3   7  4.511599E-01
         3   8  4.810997E-01
         4   1  3.103124E-02
         4   2  3.382005E-02
         4   3  4.353583E-01
         4   4  4.603762E-01
         4   5  3.810235E-02
         4   6  3.658132E-02
         4   7  4.810996E-01
         4   8  4.511594E-01
         5   1  3.894023E-01
         5   2  3.755120E-01
         5   3  2.997231E-02
         5   4  2.894860E-02
         5   5  3.308040E-01
         5   6  3.357683E-01
         5   7  2.682689E-02
         5   8  2.683128E-02
         6   1  3.755121E-01
         6   2  3.894020E-01
         6   3  2.894858E-02
         6   4  2.997214E-02
         6   5  3.357680E-01
         6   6  3.308027E-01
         6   7  2.683118E-02
         6   8  2.682649E-02
         7   1  2.993415E-02
         7   2  2.899411E-02
         7   3  3.881721E-01
         7   4  3.745138E-01
         7   5  2.663919E-02
         7   6  2.670218E-02
         7   7  3.297063E-01
         7   8  3.348956E-01
         8   1  2.899412E-02
         8   2  2.993416E-02
         8   3  3.745139E-01
         8   4  3.881724E-01
         8   5  2.670227E-02
         8   6  2.663949E-02
         8   7  3.348960E-01
         8   8  3.297076E-01
         9   1  2.834902E-01
         9   2  2.808978E-01
         9   3  2.195029E-02
         9   4  2.134841E-02
         9   5  2.430976E-01
         9   6  2.433403E-01
         9   7  1.952951E-02
         9   8  1.907753E-02
        10   1  2.808976E-01
        10   2  2.834883E-01
        10   3  2.134828E-02
        10   4  2.194976E-02
        10   5  2.433400E-01
        10   6  2.430955E-01
        10   7  1.907739E-02
        10   8  1.952896E-02
        11   1  2.177415E-02
        11   2  2.121829E-02
        11   3  2.823027E-01
        11   4  2.798802E-01
        11   5  1.932242E-02
        11   6  1.890697E-02
        11   7  2.420230E-01
        11   8  2.424017E-01
        12   1  2.121842E-02
        12   2  2.177462E-02
        12   3  2.798808E-01
        12   4  2.823043E-01
        12   5  1.890715E-02
        12   6  1.932309E-02
        12   7  2.424025E-01
        12   8  2.420252E-01
        13   1  2.133040E-01
        13   2  2.127535E-01
        13   3  1.663320E-02
        13   4  1.628909E-02
        13   5  1.830538E-01
        13   6  1.828841E-01
        13   7  1.461042E-02
        13   8  1.427242E-02
        14   1  2.127530E-01
        14   2  2.133020E-01
        14   3  1.628899E-02
        14   4  1.663275E-02
        14   5  1.828843E-01
        14   6  1.830542E-01
        14   7  1.427248E-02
        14   8  1.461057E-02
        15   1  1.642363E-02
        15   2  1.611276E-02
        15   3  2.122305E-01
        15   4  2.118036E-01
        15   5  1.440560E-02
        15   6  1.409450E-02
        15   7  1.820842E-01
        15   8  1.820065E-01
        16   1  1.611286E-02
        16   2  1.642427E-02
        16   3  2.118038E-01
        16   4  2.122331E-01
        16   5  1.409449E-02
        16   6  1.440578E-02
        16   7  1.820063E-01
        16   8  1.820850E-01
        17   1  1.621258E-01
        17   2  1.621951E-01
        17   3  1.291845E-02
        17   4  1.261138E-02
        17   5  1.361076E-01
        17   6  1.361845E-01
        17   7  1.124262E-02
        17   8  1.092859E-02
        18   1  1.621967E-01
        18   2  1.621282E-01
        18   3  1.261172E-02
        18   4  1.291966E-02
        18   5  1.361865E-01
        18   6  1.361117E-01
        18   7  1.092901E-02
        18   8  1.124440E-02
        19   1  1.272606E-02
        19   2  1.243730E-02
        19   3  1.612031E-01
        19   4  1.613539E-01
        19   5  1.106537E-02
        19   6  1.077009E-02
        19   7  1.353186E-01
        19   8  1.354434E-01
        20   1  1.243722E-02
        20   2  1.272515E-02
        20   3  1.613545E-01
        20   4  1.611976E-01
        20   5  1.076983E-02
        20   6  1.106421E-02
        20   7  1.354427E-01
        20   8  1.353084E-01
        21   1  1.131811E-01
        21   2  1.137002E-01
        21   3  1.004556E-02
        21   4  9.561079E-03
        21   5  8.078193E-02
        21   6  8.063651E-02
        21   7  8.687693E-03
        21   8  8.043543E-03
        22   1  1.137006E-01
        22   2  1.131906E-01
        22   3  9.561329E-03
        22   4  1.004862E-02
        22   5  8.063572E-02
        22   6  8.078646E-02
        22   7  8.043998E-03
        22   8  8.690827E-03
        23   1  9.889738E-03
        23   2  9.414172E-03
        23   3  1.124625E-01
        23   4  1.130436E-01
        23   5  8.533775E-03
        23   6  7.907565E-03
        23   7  8.020711E-02
        23   8  8.008285E-02
        24   1  9.413806E-03
        24   2  9.890018E-03
        24   3  1.130398E-01
        24   4  1.124698E-01
        24   5  7.909478E-03
        24   6  8.539920E-03
        24   7  8.008358E-02
        24   8  8.022722E-02
        25   1  5.275943E-02
        25   2  5.286216E-02
        25   3  8.713945E-03
        25   4  7.459062E-03
        25   5  2.704250E-02
        25   6  2.609359E-02
        25   7  5.404401E-03
        25   8  4.570312E-03
        26   1  5.285885E-02
        26   2  5.274504E-02
        26   3  7.457046E-03
        26   4  8.703359E-03
        26   5  2.608974E-02
        26   6  2.702886E-02
        26   7  4.570782E-03
        26   8  5.405260E-03
        27   1  8.603369E-03
        27   2  7.346396E-03
        27   3  5.226726E-02
        27   4  5.240862E-02
        27   5  5.345156E-03
        27   6  4.488201E-03
        27   7  2.664390E-02
        27   8  2.572208E-02
        28   1  7.347305E-03
        28   2  8.599341E-03
        28   3  5.241210E-02
        28   4  5.224280E-02
        28   5  4.483746E-03
        28   6  5.325234E-03
        28   7  2.572574E-02
        28   8  2.663489E-02
        29   1  9.571887E-03
        29   2  1.036458E-02
        29   3  6.938705E-03
        29   4  5.056372E-03
        29   5  8.606381E-03
        29   6  2.965998E-03
        29   7  8.206406E-03
        29   8  2.981044E-03
        30   1  1.036267E-02
        30   2  9.568628E-03
        30   3  5.060538E-03
        30   4  6.956301E-03
        30   5  2.964278E-03
        30   6  8.604434E-03
        30   7  2.979176E-03