
 displacements (vx,vy,vz) for set N1 and time  0.1910792E-07

       100 -2.173345E-24  1.423266E-23 -5.194515E-07

 displacements (vx,vy,vz) for set N1 and time  0.3821585E-07

       100 -2.219657E-23  1.180438E-22 -1.858896E-06

 displacements (vx,vy,vz) for set N1 and time  0.5000000E-07

       100 -3.262339E-23  2.605905E-22 -2.899087E-06
