
 displacements (vx,vy,vz) for set NALL and time  0.5732377E-06

         1  4.723859E-10  2.992357E-11  0.000000E+00
         2 -4.723859E-10  2.992357E-11  0.000000E+00
         3 -4.723859E-10 -2.992357E-11  0.000000E+00
         4  4.723859E-10 -2.992357E-11  0.000000E+00
         5  1.077788E-06  1.048769E-06  1.173339E-05
         6 -1.077788E-06  1.048769E-06  1.173339E-05
         7 -1.077788E-06 -1.048769E-06  1.173339E-05
         8  1.077788E-06 -1.048769E-06  1.173339E-05
         9 -3.718302E-10 -5.291416E-11  0.000000E+00
        10 -4.617999E-26 -3.681234E-10  0.000000E+00
        11  3.718302E-10 -5.291416E-11  0.000000E+00
        12  2.254518E-10  1.323335E-10  0.000000E+00
        13 -2.777688E-10  0.000000E+00  0.000000E+00
        14  2.254518E-10 -1.323335E-10  0.000000E+00
        15  3.718302E-10  5.291416E-11  0.000000E+00
        16  4.531706E-25  3.681234E-10  0.000000E+00
        17 -3.718302E-10  5.291416E-11  0.000000E+00
        18 -2.254518E-10 -1.323335E-10  0.000000E+00
        19  2.777688E-10  4.595891E-24  0.000000E+00
        20 -2.254518E-10  1.323335E-10  0.000000E+00
        21  5.561267E-07  1.080336E-06  1.214682E-05
        22 -6.482007E-18  1.077218E-06  1.197962E-05
        23 -5.561267E-07  1.080336E-06  1.214682E-05
        24 -9.677871E-07  5.731121E-07  1.270420E-05
        25 -1.222964E-06  1.938245E-19  1.271532E-05
        26 -9.677871E-07 -5.731121E-07  1.270420E-05
        27 -5.561267E-07 -1.080336E-06  1.214682E-05
        28 -6.323266E-18 -1.077218E-06  1.197962E-05
        29  5.561267E-07 -1.080336E-06  1.214682E-05
        30  9.677871E-07 -5.731121E-07  1.270420E-05
        31  1.222964E-06  2.074648E-21  1.271532E-05
        32  9.677871E-07  5.731121E-07  1.270420E-05
        33  2.105124E-10  3.246915E-11 -3.331832E-10
        34  5.612367E-10 -1.928695E-09  8.074774E-10
        35 -1.650526E-09  1.216977E-09 -6.182918E-10
        36 -9.259345E-11  3.044580E-09 -6.503585E-10
        37  4.007510E-09 -4.126935E-09  2.993735E-09
        38 -3.305127E-09  3.597787E-09  2.932728E-10
        39 -3.366981E-09  9.719120E-09  2.114401E-09
        40 -4.017096E-09  5.608842E-10  1.578706E-08
        41 -3.273837E-08  3.198453E-08  8.885028E-08
        42 -6.409649E-08  7.870501E-08  2.155934E-07
        43 -1.438755E-07  2.651832E-07  6.290429E-07
        44 -3.107770E-07  3.978197E-07  1.363811E-06
        45 -6.178116E-07  8.894610E-07  3.194028E-06
        46 -7.665649E-07  1.307487E-06  5.378709E-06
        47 -1.145407E-06  1.711796E-06  8.481995E-06
        48  1.145407E-06  1.711796E-06  8.481995E-06
        49  7.665649E-07  1.307487E-06  5.378709E-06
        50  6.178116E-07  8.894610E-07  3.194028E-06
        51  3.107770E-07  3.978197E-07  1.363811E-06
        52  1.438755E-07  2.651832E-07  6.290429E-07
        53  6.409649E-08  7.870501E-08  2.155934E-07
        54  3.273837E-08  3.198453E-08  8.885028E-08
        55  4.017096E-09  5.608842E-10  1.578706E-08
        56  3.366981E-09  9.719120E-09  2.114401E-09
        57  3.305127E-09  3.597787E-09  2.932728E-10
        58 -4.007510E-09 -4.126935E-09  2.993735E-09
        59  9.259345E-11  3.044580E-09 -6.503585E-10
        60  1.650526E-09  1.216977E-09 -6.182918E-10
        61 -5.612367E-10 -1.928695E-09  8.074774E-10
        62 -2.105124E-10  3.246915E-11 -3.331832E-10
        63  2.105124E-10 -3.246915E-11 -3.331832E-10
        64  5.612367E-10  1.928695E-09  8.074774E-10
        65 -1.650526E-09 -1.216977E-09 -6.182918E-10
        66 -9.259345E-11 -3.044580E-09 -6.503585E-10
        67  4.007510E-09  4.126935E-09  2.993735E-09
        68 -3.305127E-09 -3.597787E-09  2.932728E-10
        69 -3.366981E-09 -9.719120E-09  2.114401E-09
        70 -4.017096E-09 -5.608842E-10  1.578706E-08
        71 -3.273837E-08 -3.198453E-08  8.885028E-08
        72 -6.409649E-08 -7.870501E-08  2.155934E-07
        73 -1.438755E-07 -2.651832E-07  6.290429E-07
        74 -3.107770E-07 -3.978197E-07  1.363811E-06
        75 -6.178116E-07 -8.894610E-07  3.194028E-06
        76 -7.665649E-07 -1.307487E-06  5.378709E-06
        77 -1.145407E-06 -1.711796E-06  8.481995E-06
        78 -2.105124E-10 -3.246915E-11 -3.331832E-10
        79 -5.612367E-10  1.928695E-09  8.074774E-10
        80  1.650526E-09 -1.216977E-09 -6.182918E-10
        81  9.259345E-11 -3.044580E-09 -6.503585E-10
        82 -4.007510E-09  4.126935E-09  2.993735E-09
        83  3.305127E-09 -3.597787E-09  2.932728E-10
        84  3.366981E-09 -9.719120E-09  2.114401E-09
        85  4.017096E-09 -5.608842E-10  1.578706E-08
        86  3.273837E-08 -3.198453E-08  8.885028E-08
        87  6.409649E-08 -7.870501E-08  2.155934E-07
        88  1.438755E-07 -2.651832E-07  6.290429E-07
        89  3.107770E-07 -3.978197E-07  1.363811E-06
        90  6.178116E-07 -8.894610E-07  3.194028E-06
        91  7.665649E-07 -1.307487E-06  5.378709E-06
        92  1.145407E-06 -1.711796E-06  8.481995E-06
        93 -6.026779E-25  3.425318E-10  0.000000E+00
        94 -1.388842E-10 -4.524344E-24  0.000000E+00
        95  0.000000E+00  0.000000E+00  0.000000E+00
        96  1.388842E-10 -3.833349E-24  0.000000E+00
        97 -1.752055E-25 -3.425318E-10  0.000000E+00
        98  4.014761E-18  5.364186E-07  1.277925E-05
        99  6.313516E-07 -4.379034E-20  1.294740E-05
       100  7.301083E-18 -1.657063E-19  1.304124E-05
       101 -6.313516E-07 -1.337008E-19  1.294740E-05
       102  3.830652E-18 -5.364186E-07  1.277925E-05
       103 -4.191255E-25  5.514150E-11  8.561277E-12
       104 -1.845592E-10  1.343981E-09 -2.872478E-10
       105  9.794808E-25 -1.249476E-09  9.797291E-10
       106  1.845592E-10  1.343981E-09 -2.872478E-10
       107 -2.824544E-26  7.952475E-10 -7.130612E-10
       108  9.590393E-10 -2.894645E-09 -2.293044E-10
       109 -2.315567E-24  2.199400E-09 -9.236426E-10
       110 -9.590393E-10 -2.894645E-09 -2.293044E-10
       111 -6.476651E-24 -2.944075E-09  2.269671E-09
       112  5.643200E-10  4.264275E-10  5.261867E-09
       113 -8.561744E-23  3.677498E-09 -5.813319E-10
       114 -5.643200E-10  4.264275E-10  5.261867E-09
       115  1.564378E-22  6.519419E-09  4.506414E-09
       116  1.034761E-09  1.814541E-08  1.642939E-08
       117  2.274434E-22 -1.611153E-09  1.685355E-08
       118 -1.034761E-09  1.814541E-08  1.642939E-08
       119 -3.513224E-21  2.709878E-08  7.069416E-08
       120  3.283497E-08  7.052234E-08  2.377849E-07
       121 -2.904987E-19  8.391216E-08  1.906581E-07
       122 -3.283497E-08  7.052234E-08  2.377849E-07
       123  9.587571E-19  2.191122E-07  5.910794E-07
       124  1.475427E-07  4.249148E-07  1.442395E-06
       125 -1.252610E-18  3.651507E-07  1.236340E-06
       126 -1.475427E-07  4.249148E-07  1.442395E-06
       127 -1.188751E-18  8.843311E-07  3.028636E-06
       128  3.930197E-07  1.234365E-06  5.379549E-06
       129 -3.739884E-18  1.180631E-06  5.210687E-06
       130 -3.930197E-07  1.234365E-06  5.379549E-06
       131  4.411806E-19  1.632497E-06  8.456761E-06
       132 -5.057468E-11 -7.519283E-25 -5.387614E-10
       133 -1.260819E-09  5.131715E-10 -2.609122E-10
       134 -3.504352E-10 -7.245440E-24  1.156341E-09
       135 -1.260819E-09 -5.131715E-10 -2.609122E-10
       136 -1.630903E-09  5.678342E-24 -5.340493E-10
       137  2.346517E-09 -3.830563E-10  1.834129E-10
       138  5.605776E-10  4.002895E-24 -2.248727E-09
       139  2.346517E-09  3.830563E-10  1.834129E-10
       140  4.956673E-09 -2.308504E-23  3.309299E-09
       141  5.190690E-10 -1.040247E-09  1.077099E-09
       142 -3.859231E-10  7.967452E-23  2.731091E-09
       143  5.190690E-10  1.040247E-09  1.077099E-09
       144 -3.596268E-09  3.174726E-23 -5.098119E-10
       145 -1.898582E-08 -1.143053E-10  3.619322E-08
       146 -8.148988E-09 -8.484907E-22  1.378480E-08
       147 -1.898582E-08  1.143053E-10  3.619322E-08
       148 -2.447164E-08  5.813683E-22  7.428508E-08
       149 -8.719302E-08  4.487140E-08  2.561176E-07
       150 -5.950063E-08  4.174546E-21  1.796759E-07
       151 -8.719302E-08 -4.487140E-08  2.561176E-07
       152 -1.441041E-07 -1.040724E-20  5.636465E-07
       153 -3.548621E-07  1.558010E-07  1.510568E-06
       154 -3.036244E-07  8.295501E-21  1.160462E-06
       155 -3.548621E-07 -1.558010E-07  1.510568E-06
       156 -5.377868E-07  5.989001E-20  2.801419E-06
       157 -8.139518E-07  6.786746E-07  5.559370E-06
       158 -7.893278E-07  2.529231E-20  5.067002E-06
       159 -8.139518E-07 -6.786746E-07  5.559370E-06
       160 -1.376705E-06 -2.000278E-19  8.748446E-06
       161 -3.629872E-25 -5.514150E-11  8.561277E-12
       162  1.845592E-10 -1.343981E-09 -2.872478E-10
       163 -6.910657E-25  1.249476E-09  9.797291E-10
       164 -1.845592E-10 -1.343981E-09 -2.872478E-10
       165 -1.040426E-24 -7.952475E-10 -7.130612E-10
       166 -9.590393E-10  2.894645E-09 -2.293044E-10
       167  9.150112E-24 -2.199400E-09 -9.236426E-10
       168  9.590393E-10  2.894645E-09 -2.293044E-10
       169 -2.398897E-24  2.944075E-09  2.269671E-09
       170 -5.643200E-10 -4.264275E-10  5.261867E-09
       171 -6.928893E-23 -3.677498E-09 -5.813319E-10
       172  5.643200E-10 -4.264275E-10  5.261867E-09
       173  5.776321E-23 -6.519419E-09  4.506414E-09
       174 -1.034761E-09 -1.814541E-08  1.642939E-08
       175 -5.564789E-22  1.611153E-09  1.685355E-08
       176  1.034761E-09 -1.814541E-08  1.642939E-08
       177 -2.040311E-21 -2.709878E-08  7.069416E-08
       178 -3.283497E-08 -7.052234E-08  2.377849E-07
       179 -2.824360E-19 -8.391216E-08  1.906581E-07
       180  3.283497E-08 -7.052234E-08  2.377849E-07
       181  9.434910E-19 -2.191122E-07  5.910794E-07
       182 -1.475427E-07 -4.249148E-07  1.442395E-06
       183 -1.266157E-18 -3.651507E-07  1.236340E-06
       184  1.475427E-07 -4.249148E-07  1.442395E-06
       185 -1.108859E-18 -8.843311E-07  3.028636E-06
       186 -3.930197E-07 -1.234365E-06  5.379549E-06
       187 -3.674198E-18 -1.180631E-06  5.210687E-06
       188  3.930197E-07 -1.234365E-06  5.379549E-06
       189  1.716016E-19 -1.632497E-06  8.456761E-06
       190  5.057468E-11 -1.080741E-24 -5.387614E-10
       191  1.260819E-09 -5.131715E-10 -2.609122E-10
       192  3.504352E-10 -7.758857E-24  1.156341E-09
       193  1.260819E-09  5.131715E-10 -2.609122E-10
       194  1.630903E-09  6.710720E-24 -5.340493E-10
       195 -2.346517E-09  3.830563E-10  1.834129E-10
       196 -5.605776E-10  1.583806E-23 -2.248727E-09
       197 -2.346517E-09 -3.830563E-10  1.834129E-10
       198 -4.956673E-09 -2.983347E-23  3.309299E-09
       199 -5.190690E-10  1.040247E-09  1.077099E-09
       200  3.859231E-10  2.064208E-23  2.731091E-09
       201 -5.190690E-10 -1.040247E-09  1.077099E-09
       202  3.596268E-09  1.390978E-22 -5.098119E-10
       203  1.898582E-08  1.143053E-10  3.619322E-08
       204  8.148988E-09 -2.309830E-22  1.378480E-08
       205  1.898582E-08 -1.143053E-10  3.619322E-08
       206  2.447164E-08 -5.817650E-22  7.428508E-08
       207  8.719302E-08 -4.487140E-08  2.561176E-07
       208  5.950063E-08  1.155758E-21  1.796759E-07
       209  8.719302E-08  4.487140E-08  2.561176E-07
       210  1.441041E-07  2.954343E-21  5.636465E-07
       211  3.548621E-07 -1.558010E-07  1.510568E-06
       212  3.036244E-07 -1.990431E-21  1.160462E-06
       213  3.548621E-07  1.558010E-07  1.510568E-06
       214  5.377868E-07 -2.973772E-21  2.801419E-06
       215  8.139518E-07 -6.786746E-07  5.559370E-06
       216  7.893278E-07  5.141026E-21  5.067002E-06
       217  8.139518E-07  6.786746E-07  5.559370E-06
       218  1.376705E-06  9.454334E-21  8.748446E-06
       219 -4.457536E-25 -1.090239E-24 -4.689661E-10
       220  1.631649E-25  4.553822E-11  1.471838E-10
       221 -8.185443E-10  9.841389E-24 -2.337372E-10
       222  2.289485E-25 -8.123719E-24  1.243399E-09
       223  8.185443E-10  8.011988E-24 -2.337372E-10
       224 -5.594944E-25 -4.553822E-11  1.471838E-10
       225  2.675538E-25  6.947172E-24 -5.081382E-10
       226 -2.624443E-24  1.921740E-11 -6.577190E-10
       227  1.414294E-09 -1.996327E-23 -2.279492E-10
       228  3.419368E-24  7.550092E-24 -2.223587E-09
       229 -1.414294E-09 -9.816879E-24 -2.279492E-10
       230 -3.714600E-24 -1.921740E-11 -6.577190E-10
       231 -5.378418E-24 -3.965310E-23  3.080470E-09
       232  1.229622E-22 -1.892485E-10  2.257301E-09
       233  2.117867E-09  3.379608E-23  4.169011E-09
       234 -8.411471E-23  4.478086E-23  1.615666E-09
       235 -2.117867E-09 -1.034739E-23  4.169011E-09
       236  8.800996E-23  1.892485E-10  2.257301E-09
       237  1.447773E-22  1.526964E-22  7.528769E-10
       238 -2.884919E-21 -1.036015E-09  2.981286E-08
       239 -9.244279E-10  2.786318E-23  1.290497E-08
       240 -9.191298E-21 -5.526055E-22  1.618865E-08
       241  9.244279E-10  6.908504E-22  1.290497E-08
       242 -1.994923E-21  1.036015E-09  2.981286E-08
       243 -2.465604E-20 -2.420895E-22  5.600438E-08
       244  3.931836E-19  4.964315E-08  2.308356E-07
       245  3.027461E-08  9.948499E-23  1.953004E-07
       246 -3.619868E-20  2.847840E-21  1.613027E-07
       247 -3.027461E-08 -5.700774E-21  1.953004E-07
       248  3.832802E-19 -4.964315E-08  2.308356E-07
       249  2.697010E-18 -1.082681E-21  5.221608E-07
       250  8.498368E-19  1.550035E-07  1.365198E-06
       251  1.461928E-07  2.713843E-21  1.240524E-06
       252  3.813090E-18 -4.380061E-21  1.034657E-06
       253 -1.461928E-07  2.724948E-20  1.240524E-06
       254  8.888420E-19 -1.550035E-07  1.365198E-06
       255 -9.714712E-19  2.137958E-20  2.643688E-06
       256  2.140426E-19  6.426475E-07  5.440521E-06
       257  3.986346E-07 -7.330543E-21  5.062986E-06
       258 -2.111939E-18  6.569598E-21  4.793021E-06
       259 -3.986346E-07 -2.205685E-20  5.062986E-06
       260  1.985783E-19 -6.426475E-07  5.440521E-06
       261  4.326642E-18 -1.150244E-19  8.735796E-06

 stresses (elem, integ.pnt.,sxx,syy,szz,sxy,sxz,syz) for set EALL and time  0.5732377E-06

         1   1 -8.493378E-04 -4.385232E-04 -9.081191E-04  1.576953E-04 -3.653114E-05  1.202384E-04
         1   2  4.464917E-04  2.561949E-04 -2.117448E-04 -2.328049E-04  1.543379E-04  1.098480E-04
         1   3 -1.202065E-03 -1.243746E-03 -1.355793E-03  1.002179E-04 -7.571177E-05  1.347849E-04
         1   4 -4.207690E-05 -7.462781E-04 -8.023868E-04 -3.690724E-05  1.144400E-04  8.582450E-05
         1   5 -5.501351E-05  5.756617E-04  3.846416E-04  8.579094E-04 -2.157498E-04 -3.212250E-04
         1   6  3.555284E-04  4.541049E-04  4.545427E-04 -6.923488E-04  4.665948E-04 -2.915606E-04
         1   7 -1.571039E-03 -1.554104E-03 -5.694371E-04 -5.331205E-05 -2.743966E-04  2.394456E-04
         1   8  2.851116E-04 -5.944325E-04  2.896280E-04 -3.235305E-04  4.579755E-04  1.697108E-04
         2   1  4.464917E-04  2.561949E-04 -2.117448E-04  2.328049E-04 -1.543379E-04  1.098480E-04
         2   2 -8.493378E-04 -4.385232E-04 -9.081191E-04 -1.576953E-04  3.653114E-05  1.202384E-04
         2   3 -4.207690E-05 -7.462781E-04 -8.023868E-04  3.690724E-05 -1.144400E-04  8.582450E-05
         2   4 -1.202065E-03 -1.243746E-03 -1.355793E-03 -1.002179E-04  7.571177E-05  1.347849E-04
         2   5  3.555284E-04  4.541049E-04  4.545427E-04  6.923488E-04 -4.665948E-04 -2.915606E-04
         2   6 -5.501351E-05  5.756617E-04  3.846416E-04 -8.579094E-04  2.157498E-04 -3.212250E-04
         2   7  2.851116E-04 -5.944325E-04  2.896280E-04  3.235305E-04 -4.579755E-04  1.697108E-04
         2   8 -1.571039E-03 -1.554104E-03 -5.694371E-04  5.331205E-05  2.743966E-04  2.394456E-04
         3   1 -1.202065E-03 -1.243746E-03 -1.355793E-03 -1.002179E-04 -7.571177E-05 -1.347849E-04
         3   2 -4.207690E-05 -7.462781E-04 -8.023868E-04  3.690724E-05  1.144400E-04 -8.582450E-05
         3   3 -8.493378E-04 -4.385232E-04 -9.081191E-04 -1.576953E-04 -3.653114E-05 -1.202384E-04
         3   4  4.464917E-04  2.561949E-04 -2.117448E-04  2.328049E-04  1.543379E-04 -1.098480E-04
         3   5 -1.571039E-03 -1.554104E-03 -5.694371E-04  5.331205E-05 -2.743966E-04 -2.394456E-04
         3   6  2.851116E-04 -5.944325E-04  2.896280E-04  3.235305E-04  4.579755E-04 -1.697108E-04
         3   7 -5.501351E-05  5.756617E-04  3.846416E-04 -8.579094E-04 -2.157498E-04  3.212250E-04
         3   8  3.555284E-04  4.541049E-04  4.545427E-04  6.923488E-04  4.665948E-04  2.915606E-04
         4   1 -4.207690E-05 -7.462781E-04 -8.023868E-04 -3.690724E-05 -1.144400E-04 -8.582450E-05
         4   2 -1.202065E-03 -1.243746E-03 -1.355793E-03  1.002179E-04  7.571177E-05 -1.347849E-04
         4   3  4.464917E-04  2.561949E-04 -2.117448E-04 -2.328049E-04 -1.543379E-04 -1.098480E-04
         4   4 -8.493378E-04 -4.385232E-04 -9.081191E-04  1.576953E-04  3.653114E-05 -1.202384E-04
         4   5  2.851116E-04 -5.944325E-04  2.896280E-04 -3.235305E-04 -4.579755E-04 -1.697108E-04
         4   6 -1.571039E-03 -1.554104E-03 -5.694371E-04 -5.331205E-05  2.743966E-04 -2.394456E-04
         4   7  3.555284E-04  4.541049E-04  4.545427E-04 -6.923488E-04 -4.665948E-04  2.915606E-04
         4   8 -5.501351E-05  5.756617E-04  3.846416E-04  8.579094E-04  2.157498E-04  3.212250E-04
         5   1 -4.231827E-04  1.783729E-04 -8.475542E-05  4.193820E-04 -6.887691E-05 -2.421196E-04
         5   2 -9.319789E-04 -2.975802E-04 -5.163936E-04 -3.763844E-04  4.146347E-04 -2.661155E-04
         5   3 -1.536035E-03 -1.207029E-03 -7.234678E-04 -8.756520E-05 -5.731002E-05  4.915859E-05
         5   4 -7.820867E-04 -7.528496E-04 -4.681158E-04 -2.078205E-04  4.314157E-04  6.771895E-05
         5   5  8.904342E-04 -1.528348E-04  7.490130E-04 -1.419711E-03 -2.580877E-04 -7.766376E-05
         5   6 -1.147629E-03 -7.336348E-04 -1.497420E-04  9.997657E-04 -2.793501E-04 -1.128745E-04
         5   7  1.965744E-03  1.760792E-03  1.357756E-03 -5.929496E-06  1.122968E-05 -4.253073E-04
         5   8 -8.473295E-04  4.621354E-04  3.572057E-05  4.107910E-04 -4.469421E-04 -2.950289E-04
         6   1 -9.319789E-04 -2.975802E-04 -5.163936E-04  3.763844E-04 -4.146347E-04 -2.661155E-04
         6   2 -4.231827E-04  1.783729E-04 -8.475542E-05 -4.193820E-04  6.887691E-05 -2.421196E-04
         6   3 -7.820867E-04 -7.528496E-04 -4.681158E-04  2.078205E-04 -4.314157E-04  6.771895E-05
         6   4 -1.536035E-03 -1.207029E-03 -7.234678E-04  8.756520E-05  5.731002E-05  4.915859E-05
         6   5 -1.147629E-03 -7.336348E-04 -1.497420E-04 -9.997657E-04  2.793501E-04 -1.128745E-04
         6   6  8.904342E-04 -1.528348E-04  7.490130E-04  1.419711E-03  2.580877E-04 -7.766376E-05
         6   7 -8.473295E-04  4.621354E-04  3.572057E-05 -4.107910E-04  4.469421E-04 -2.950289E-04
         6   8  1.965744E-03  1.760792E-03  1.357756E-03  5.929496E-06 -1.122968E-05 -4.253073E-04
         7   1 -1.536035E-03 -1.207029E-03 -7.234678E-04  8.756520E-05 -5.731002E-05 -4.915859E-05
         7   2 -7.820867E-04 -7.528496E-04 -4.681158E-04  2.078205E-04  4.314157E-04 -6.771895E-05
         7   3 -4.231827E-04  1.783729E-04 -8.475542E-05 -4.193820E-04 -6.887691E-05  2.421196E-04
         7   4 -9.319789E-04 -2.975802E-04 -5.163936E-04  3.763844E-04  4.146347E-04  2.661155E-04
         7   5  1.965744E-03  1.760792E-03  1.357756E-03  5.929496E-06  1.122968E-05  4.253073E-04
         7   6 -8.473295E-04  4.621354E-04  3.572057E-05 -4.107910E-04 -4.469421E-04  2.950289E-04
         7   7  8.904342E-04 -1.528348E-04  7.490130E-04  1.419711E-03 -2.580877E-04  7.766376E-05
         7   8 -1.147629E-03 -7.336348E-04 -1.497420E-04 -9.997657E-04 -2.793501E-04  1.128745E-04
         8   1 -7.820867E-04 -7.528496E-04 -4.681158E-04 -2.078205E-04 -4.314157E-04 -6.771895E-05
         8   2 -1.536035E-03 -1.207029E-03 -7.234678E-04 -8.756520E-05  5.731002E-05 -4.915859E-05
         8   3 -9.319789E-04 -2.975802E-04 -5.163936E-04 -3.763844E-04 -4.146347E-04  2.661155E-04
         8   4 -4.231827E-04  1.783729E-04 -8.475542E-05  4.193820E-04  6.887691E-05  2.421196E-04
         8   5 -8.473295E-04  4.621354E-04  3.572057E-05  4.107910E-04  4.469421E-04  2.950289E-04
         8   6  1.965744E-03  1.760792E-03  1.357756E-03 -5.929496E-06 -1.122968E-05  4.253073E-04
         8   7 -1.147629E-03 -7.336348E-04 -1.497420E-04  9.997657E-04  2.793501E-04  1.128745E-04
         8   8  8.904342E-04 -1.528348E-04  7.490130E-04 -1.419711E-03  2.580877E-04  7.766376E-05
         9   1  4.953723E-03  3.038393E-03  4.596671E-03 -1.724634E-03 -1.840570E-04 -7.060856E-04
         9   2  3.199566E-03  2.597557E-03  4.070797E-03  1.581576E-03 -9.554911E-04 -5.239197E-04
         9   3  7.571967E-03  6.928637E-03  6.630306E-03  1.715127E-04  1.044243E-05 -6.299324E-04
         9   4  3.595760E-03  4.873475E-03  4.991174E-03  6.892222E-04 -9.343746E-04 -5.396123E-04
         9   5  7.916044E-04 -5.395415E-04 -7.703733E-04 -1.313014E-03  2.378938E-03  1.221164E-03
         9   6  1.308543E-03 -9.564491E-05 -3.206314E-04  1.312201E-03 -1.229430E-03  1.357802E-03
         9   7  5.213354E-03  4.893235E-03  2.270204E-03  3.037384E-04  1.797768E-03  1.827383E-04
         9   8  1.482372E-03  2.811359E-03  5.746877E-04  6.720282E-04 -6.709992E-04 -5.733308E-05
        10   1  3.199566E-03  2.597557E-03  4.070797E-03 -1.581576E-03  9.554911E-04 -5.239197E-04
        10   2  4.953723E-03  3.038393E-03  4.596671E-03  1.724634E-03  1.840570E-04 -7.060856E-04
        10   3  3.595760E-03  4.873475E-03  4.991174E-03 -6.892222E-04  9.343746E-04 -5.396123E-04
        10   4  7.571967E-03  6.928637E-03  6.630306E-03 -1.715127E-04 -1.044243E-05 -6.299324E-04
        10   5  1.308543E-03 -9.564491E-05 -3.206314E-04 -1.312201E-03  1.229430E-03  1.357802E-03
        10   6  7.916044E-04 -5.395415E-04 -7.703733E-04  1.313014E-03 -2.378938E-03  1.221164E-03
        10   7  1.482372E-03  2.811359E-03  5.746877E-04 -6.720282E-04  6.709992E-04 -5.733308E-05
        10   8  5.213354E-03  4.893235E-03  2.270204E-03 -3.037384E-04 -1.797768E-03  1.827383E-04
        11   1  7.571967E-03  6.928637E-03  6.630306E-03 -1.715127E-04  1.044243E-05  6.299324E-04
        11   2  3.595760E-03  4.873475E-03  4.991174E-03 -6.892222E-04 -9.343746E-04  5.396123E-04
        11   3  4.953723E-03  3.038393E-03  4.596671E-03  1.724634E-03 -1.840570E-04  7.060856E-04
        11   4  3.199566E-03  2.597557E-03  4.070797E-03 -1.581576E-03 -9.554911E-04  5.239197E-04
        11   5  5.213354E-03  4.893235E-03  2.270204E-03 -3.037384E-04  1.797768E-03 -1.827383E-04
        11   6  1.482372E-03  2.811359E-03  5.746877E-04 -6.720282E-04 -6.709992E-04  5.733308E-05
        11   7  7.916044E-04 -5.395415E-04 -7.703733E-04  1.313014E-03  2.378938E-03 -1.221164E-03
        11   8  1.308543E-03 -9.564491E-05 -3.206314E-04 -1.312201E-03 -1.229430E-03 -1.357802E-03
        12   1  3.595760E-03  4.873475E-03  4.991174E-03  6.892222E-04  9.343746E-04  5.396123E-04
        12   2  7.571967E-03  6.928637E-03  6.630306E-03  1.715127E-04 -1.044243E-05  6.299324E-04
        12   3  3.199566E-03  2.597557E-03  4.070797E-03  1.581576E-03  9.554911E-04  5.239197E-04
        12   4  4.953723E-03  3.038393E-03  4.596671E-03 -1.724634E-03  1.840570E-04  7.060856E-04
        12   5  1.482372E-03  2.811359E-03  5.746877E-04  6.720282E-04  6.709992E-04  5.733308E-05
        12   6  5.213354E-03  4.893235E-03  2.270204E-03  3.037384E-04 -1.797768E-03 -1.827383E-04
        12   7  1.308543E-03 -9.564491E-05 -3.206314E-04  1.312201E-03  1.229430E-03 -1.357802E-03
        12   8  7.916044E-04 -5.395415E-04 -7.703733E-04 -1.313014E-03 -2.378938E-03 -1.221164E-03
        13   1 -3.846411E-03 -5.106689E-03 -4.464621E-04  3.908205E-04  2.147598E-03  2.634259E-03
        13   2 -1.600773E-03 -3.546237E-03  6.829893E-04 -4.598708E-04 -1.090646E-03  2.284728E-03
        13   3 -1.267821E-03 -1.330066E-03  1.657479E-04 -8.073390E-05  1.381412E-03 -7.355327E-04
        13   4 -1.705855E-03 -1.526140E-03 -1.975841E-04 -7.528605E-05 -6.651949E-04 -8.906919E-04
        13   5 -6.036021E-03 -5.110104E-03  4.827883E-03  5.684981E-03  7.445338E-04  3.139666E-03
        13   6 -2.306920E-03 -3.194583E-03  5.421625E-03 -4.118558E-03 -4.035279E-04  2.359487E-03
        13   7 -7.810954E-03 -4.502649E-03  4.973333E-03 -8.443018E-04  2.790128E-04 -4.330808E-03
        13   8 -1.651444E-04 -1.029690E-03  7.590987E-03 -1.818226E-03 -2.757323E-05 -3.478175E-03
        14   1 -1.600773E-03 -3.546237E-03  6.829893E-04  4.598708E-04  1.090646E-03  2.284728E-03
        14   2 -3.846411E-03 -5.106689E-03 -4.464621E-04 -3.908205E-04 -2.147598E-03  2.634259E-03
        14   3 -1.705855E-03 -1.526140E-03 -1.975841E-04  7.528605E-05  6.651949E-04 -8.906919E-04
        14   4 -1.267821E-03 -1.330066E-03  1.657479E-04  8.073390E-05 -1.381412E-03 -7.355327E-04
        14   5 -2.306920E-03 -3.194583E-03  5.421625E-03  4.118558E-03  4.035279E-04  2.359487E-03
        14   6 -6.036021E-03 -5.110104E-03  4.827883E-03 -5.684981E-03 -7.445338E-04  3.139666E-03
        14   7 -1.651444E-04 -1.029690E-03  7.590987E-03  1.818226E-03  2.757323E-05 -3.478175E-03
        14   8 -7.810954E-03 -4.502649E-03  4.973333E-03  8.443018E-04 -2.790128E-04 -4.330808E-03
        15   1 -1.267821E-03 -1.330066E-03  1.657479E-04  8.073390E-05  1.381412E-03  7.355327E-04
        15   2 -1.705855E-03 -1.526140E-03 -1.975841E-04  7.528605E-05 -6.651949E-04  8.906919E-04
        15   3 -3.846411E-03 -5.106689E-03 -4.464621E-04 -3.908205E-04  2.147598E-03 -2.634259E-03
        15   4 -1.600773E-03 -3.546237E-03  6.829893E-04  4.598708E-04 -1.090646E-03 -2.284728E-03
        15   5 -7.810954E-03 -4.502649E-03  4.973333E-03  8.443018E-04  2.790128E-04  4.330808E-03
        15   6 -1.651444E-04 -1.029690E-03  7.590987E-03  1.818226E-03 -2.757323E-05  3.478175E-03
        15   7 -6.036021E-03 -5.110104E-03  4.827883E-03 -5.684981E-03  7.445338E-04 -3.139666E-03
        15   8 -2.306920E-03 -3.194583E-03  5.421625E-03  4.118558E-03 -4.035279E-04 -2.359487E-03
        16   1 -1.705855E-03 -1.526140E-03 -1.975841E-04 -7.528605E-05  6.651949E-04  8.906919E-04
        16   2 -1.267821E-03 -1.330066E-03  1.657479E-04 -8.073390E-05 -1.381412E-03  7.355327E-04
        16   3 -1.600773E-03 -3.546237E-03  6.829893E-04 -4.598708E-04  1.090646E-03 -2.284728E-03
        16   4 -3.846411E-03 -5.106689E-03 -4.464621E-04  3.908205E-04 -2.147598E-03 -2.634259E-03
        16   5 -1.651444E-04 -1.029690E-03  7.590987E-03 -1.818226E-03  2.757323E-05  3.478175E-03
        16   6 -7.810954E-03 -4.502649E-03  4.973333E-03 -8.443018E-04 -2.790128E-04  4.330808E-03
        16   7 -2.306920E-03 -3.194583E-03  5.421625E-03 -4.118558E-03  4.035279E-04 -2.359487E-03
        16   8 -6.036021E-03 -5.110104E-03  4.827883E-03  5.684981E-03 -7.445338E-04 -3.139666E-03
        17   1  1.899961E-03  7.454829E-03  3.879741E-02  5.659216E-03  4.231576E-03  8.787556E-03
        17   2  3.159305E-03  7.573495E-03  3.457172E-02 -3.705224E-03 -3.475963E-03  7.531170E-03
        17   3 -2.345048E-03  3.054652E-03  3.259622E-02 -2.663372E-03  2.499112E-03 -6.836048E-03
        17   4  3.361931E-03  4.500605E-03  2.981009E-02 -2.203125E-03 -2.833071E-03 -5.834715E-03
        17   5 -6.801157E-03  4.419243E-03  6.186075E-02  2.465421E-03  1.016905E-02  1.453840E-02
        17   6 -7.254880E-03  4.829109E-03  6.117480E-02  2.386264E-03 -1.237422E-02  1.492934E-02
        17   7 -1.163515E-02 -6.085405E-03  5.167266E-02 -5.420743E-03  9.130574E-03 -1.394373E-02
        17   8 -1.065493E-02 -6.154833E-03  5.229750E-02 -9.300949E-04 -1.013209E-02 -1.283543E-02
        18   1  3.159305E-03  7.573495E-03  3.457172E-02  3.705224E-03  3.475963E-03  7.531170E-03
        18   2  1.899961E-03  7.454829E-03  3.879741E-02 -5.659216E-03 -4.231576E-03  8.787556E-03
        18   3  3.361931E-03  4.500605E-03  2.981009E-02  2.203125E-03  2.833071E-03 -5.834715E-03
        18   4 -2.345048E-03  3.054652E-03  3.259622E-02  2.663372E-03 -2.499112E-03 -6.836048E-03
        18   5 -7.254880E-03  4.829109E-03  6.117480E-02 -2.386264E-03  1.237422E-02  1.492934E-02
        18   6 -6.801157E-03  4.419243E-03  6.186075E-02 -2.465421E-03 -1.016905E-02  1.453840E-02
        18   7 -1.065493E-02 -6.154833E-03  5.229750E-02  9.300949E-04  1.013209E-02 -1.283543E-02
        18   8 -1.163515E-02 -6.085405E-03  5.167266E-02  5.420743E-03 -9.130574E-03 -1.394373E-02
        19   1 -2.345048E-03  3.054652E-03  3.259622E-02  2.663372E-03  2.499112E-03  6.836048E-03
        19   2  3.361931E-03  4.500605E-03  2.981009E-02  2.203125E-03 -2.833071E-03  5.834715E-03
        19   3  1.899961E-03  7.454829E-03  3.879741E-02 -5.659216E-03  4.231576E-03 -8.787556E-03
        19   4  3.159305E-03  7.573495E-03  3.457172E-02  3.705224E-03 -3.475963E-03 -7.531170E-03
        19   5 -1.163515E-02 -6.085405E-03  5.167266E-02  5.420743E-03  9.130574E-03  1.394373E-02
        19   6 -1.065493E-02 -6.154833E-03  5.229750E-02  9.300949E-04 -1.013209E-02  1.283543E-02
        19   7 -6.801157E-03  4.419243E-03  6.186075E-02 -2.465421E-03  1.016905E-02 -1.453840E-02
        19   8 -7.254880E-03  4.829109E-03  6.117480E-02 -2.386264E-03 -1.237422E-02 -1.492934E-02
        20   1  3.361931E-03  4.500605E-03  2.981009E-02 -2.203125E-03  2.833071E-03  5.834715E-03
        20   2 -2.345048E-03  3.054652E-03  3.259622E-02 -2.663372E-03 -2.499112E-03  6.836048E-03
        20   3  3.159305E-03  7.573495E-03  3.457172E-02 -3.705224E-03  3.475963E-03 -7.531170E-03
        20   4  1.899961E-03  7.454829E-03  3.879741E-02  5.659216E-03 -4.231576E-03 -8.787556E-03
        20   5 -1.065493E-02 -6.154833E-03  5.229750E-02 -9.300949E-04  1.013209E-02  1.283543E-02
        20   6 -1.163515E-02 -6.085405E-03  5.167266E-02 -5.420743E-03 -9.130574E-03  1.394373E-02
        20   7 -7.254880E-03  4.829109E-03  6.117480E-02  2.386264E-03  1.237422E-02 -1.492934E-02
        20   8 -6.801157E-03  4.419243E-03  6.186075E-02  2.465421E-03 -1.016905E-02 -1.453840E-02
        21   1  2.763084E-02  2.676975E-02  2.183446E-01  3.464298E-03  2.665596E-02  4.245631E-02