
 displacements (vx,vy,vz) for set NALL and time  0.4000000E+00

         1  0.000000E+00  0.000000E+00  0.000000E+00
         2  0.000000E+00  0.000000E+00  0.000000E+00
         3  0.000000E+00  0.000000E+00  0.000000E+00
         4  0.000000E+00  0.000000E+00  0.000000E+00
         5 -7.916097E-05  1.755629E-01  1.404698E-02
         6  7.916097E-05  1.755629E-01  1.404698E-02
         7 -8.424665E-05  1.750227E-01 -1.865662E-02
         8  8.424665E-05  1.750227E-01 -1.865662E-02
         9  0.000000E+00  0.000000E+00  0.000000E+00
        10  0.000000E+00  0.000000E+00  0.000000E+00
        11  0.000000E+00  0.000000E+00  0.000000E+00
        12  0.000000E+00  0.000000E+00  0.000000E+00
        13  0.000000E+00  0.000000E+00  0.000000E+00
        14  0.000000E+00  0.000000E+00  0.000000E+00
        15  0.000000E+00  0.000000E+00  0.000000E+00
        16  0.000000E+00  0.000000E+00  0.000000E+00
        17  0.000000E+00  0.000000E+00  0.000000E+00
        18  0.000000E+00  0.000000E+00  0.000000E+00
        19  0.000000E+00  0.000000E+00  0.000000E+00
        20  0.000000E+00  0.000000E+00  0.000000E+00
        21 -3.627137E-05  1.753892E-01  1.403235E-02
        22  1.075449E-16  1.753721E-01  1.399802E-02
        23  3.627137E-05  1.753892E-01  1.403235E-02
        24 -1.509488E-06  1.752917E-01  5.817270E-03
        25 -6.544980E-07  1.750689E-01 -2.302879E-03
        26 -1.932597E-06  1.750256E-01 -1.042764E-02
        27 -3.838758E-05  1.748518E-01 -1.864017E-02
        28  1.234548E-16  1.748391E-01 -1.860614E-02
        29  3.838758E-05  1.748518E-01 -1.864017E-02
        30  1.932597E-06  1.750256E-01 -1.042764E-02
        31  6.544980E-07  1.750689E-01 -2.302879E-03
        32  1.509488E-06  1.752917E-01  5.817270E-03
        33 -6.162319E-04  1.080547E-03  1.847143E-03
        34 -4.501857E-04  3.854166E-03  3.692887E-03
        35 -5.080140E-04  8.668428E-03  5.410873E-03
        36 -4.484946E-04  1.501326E-02  6.980240E-03
        37 -4.263600E-04  2.300425E-02  8.384219E-03
        38 -3.818379E-04  3.234306E-02  9.647916E-03
        39 -3.477582E-04  4.300488E-02  1.075384E-02
        40 -3.076191E-04  5.480201E-02  1.170946E-02
        41 -2.705845E-04  6.763479E-02  1.250699E-02
        42 -2.331021E-04  8.136350E-02  1.315553E-02
        43 -1.908909E-04  9.585754E-02  1.365298E-02
        44 -1.532733E-04  1.110111E-01  1.400665E-02
        45 -1.194756E-04  1.266237E-01  1.420725E-02
        46 -9.859785E-05  1.426745E-01  1.427216E-02
        47 -7.325500E-06  1.589536E-01  1.420855E-02
        48  7.325500E-06  1.589536E-01  1.420855E-02
        49  9.859785E-05  1.426745E-01  1.427216E-02
        50  1.194756E-04  1.266237E-01  1.420725E-02
        51  1.532733E-04  1.110111E-01  1.400665E-02
        52  1.908909E-04  9.585754E-02  1.365298E-02
        53  2.331021E-04  8.136350E-02  1.315553E-02
        54  2.705845E-04  6.763479E-02  1.250699E-02
        55  3.076191E-04  5.480201E-02  1.170946E-02
        56  3.477582E-04  4.300488E-02  1.075384E-02
        57  3.818379E-04  3.234306E-02  9.647916E-03
        58  4.263600E-04  2.300425E-02  8.384219E-03
        59  4.484946E-04  1.501326E-02  6.980240E-03
        60  5.080140E-04  8.668428E-03  5.410873E-03
        61  4.501857E-04  3.854166E-03  3.692887E-03
        62  6.162319E-04  1.080547E-03  1.847143E-03
        63  6.182332E-04  1.070816E-03 -1.855397E-03
        64  4.496766E-04  3.823004E-03 -3.723098E-03
        65  5.083665E-04  8.606871E-03 -5.491432E-03
        66  4.485582E-04  1.491017E-02 -7.144846E-03
        67  4.263562E-04  2.285690E-02 -8.677835E-03
        68  3.815470E-04  3.214549E-02 -1.011670E-02
        69  3.475138E-04  4.275671E-02 -1.144961E-02
        70  3.071563E-04  5.450279E-02 -1.268263E-02
        71  2.700799E-04  6.728719E-02 -1.380773E-02
        72  2.324186E-04  8.097046E-02 -1.483109E-02
        73  1.903012E-04  9.542427E-02 -1.574570E-02
        74  1.522545E-04  1.105426E-01 -1.655553E-02
        75  1.187785E-04  1.261282E-01 -1.724132E-02
        76  9.674451E-05  1.421575E-01 -1.781933E-02
        77  7.874419E-06  1.584262E-01 -1.827916E-02
        78 -6.182332E-04  1.070816E-03 -1.855397E-03
        79 -4.496766E-04  3.823004E-03 -3.723098E-03
        80 -5.083665E-04  8.606871E-03 -5.491432E-03
        81 -4.485582E-04  1.491017E-02 -7.144846E-03
        82 -4.263562E-04  2.285690E-02 -8.677835E-03
        83 -3.815470E-04  3.214549E-02 -1.011670E-02
        84 -3.475138E-04  4.275671E-02 -1.144961E-02
        85 -3.071563E-04  5.450279E-02 -1.268263E-02
        86 -2.700799E-04  6.728719E-02 -1.380773E-02
        87 -2.324186E-04  8.097046E-02 -1.483109E-02
        88 -1.903012E-04  9.542427E-02 -1.574570E-02
        89 -1.522545E-04  1.105426E-01 -1.655553E-02
        90 -1.187785E-04  1.261282E-01 -1.724132E-02
        91 -9.674451E-05  1.421575E-01 -1.781933E-02
        92 -7.874419E-06  1.584262E-01 -1.827916E-02
        93  0.000000E+00  0.000000E+00  0.000000E+00
        94  0.000000E+00  0.000000E+00  0.000000E+00
        95  0.000000E+00  0.000000E+00  0.000000E+00
        96  0.000000E+00  0.000000E+00  0.000000E+00
        97  0.000000E+00  0.000000E+00  0.000000E+00
        98  8.957357E-17  1.751969E-01  5.828294E-03
        99  3.831448E-07  1.750589E-01 -2.303543E-03
       100  1.224575E-16  1.750286E-01 -2.303328E-03
       101 -3.831448E-07  1.750589E-01 -2.303543E-03
       102  1.104079E-16  1.749315E-01 -1.043571E-02
       103  6.363881E-19  1.345140E-03  1.793085E-03
       104  2.226057E-04  4.072236E-03  3.714973E-03
       105  3.617964E-18  4.121031E-03  3.741317E-03
       106 -2.226057E-04  4.072236E-03  3.714973E-03
       107  5.572398E-18  8.910457E-03  5.409513E-03
       108  2.241729E-04  1.518754E-02  6.990688E-03
       109  8.608960E-18  1.525534E-02  6.991800E-03
       110 -2.241729E-04  1.518754E-02  6.990688E-03
       111  2.055462E-17  2.321254E-02  8.387593E-03
       112  1.907030E-04  3.249170E-02  9.654207E-03
       113  2.722625E-17  3.254086E-02  9.653488E-03
       114 -1.907030E-04  3.249170E-02  9.654207E-03
       115  4.126713E-17  4.317742E-02  1.075815E-02
       116  1.537886E-04  5.491750E-02  1.171542E-02
       117  5.859419E-17  5.495685E-02  1.171370E-02
       118 -1.537886E-04  5.491750E-02  1.171542E-02
       119  5.319225E-17  6.777088E-02  1.251169E-02
       120  1.164267E-04  8.145068E-02  1.316216E-02
       121  5.661591E-17  8.147674E-02  1.316052E-02
       122 -1.164267E-04  8.145068E-02  1.316216E-02
       123  5.214343E-17  9.595559E-02  1.365828E-02
       124  7.697353E-05  1.110564E-01  1.401279E-02
       125  5.111590E-17  1.110736E-01  1.401128E-02
       126 -7.697353E-05  1.110564E-01  1.401279E-02
       127  5.808190E-17  1.266945E-01  1.421388E-02
       128  4.780807E-05  1.427137E-01  1.428262E-02
       129  1.056001E-16  1.426931E-01  1.428310E-02
       130 -4.780807E-05  1.427137E-01  1.428262E-02
       131  1.060676E-16  1.589738E-01  1.421108E-02
       132  1.721389E-06  6.960640E-04 -3.473107E-06
       133 -2.262354E-04  3.693640E-03  1.823567E-03
       134  1.498288E-06  3.708909E-03 -1.350235E-05
       135  2.278331E-04  3.677782E-03 -1.851512E-03
       136  1.440969E-06  8.342062E-03 -3.669766E-05
       137 -2.231293E-04  1.485104E-02  3.428656E-03
       138  1.051515E-06  1.479401E-02 -7.938970E-05
       139  2.243846E-04  1.479999E-02 -3.588372E-03
       140  7.801113E-07  2.270123E-02 -1.425837E-04
       141 -1.906642E-04  3.215904E-02  4.689694E-03
       142  6.153088E-07  3.207486E-02 -2.307830E-04
       143  1.912619E-04  3.206089E-02 -5.152941E-03
       144  4.282738E-07  4.270130E-02 -3.436653E-04
       145 -1.537543E-04  5.461453E-02  5.593360E-03
       146  2.525736E-07  5.450447E-02 -4.827442E-04
       147  1.538541E-04  5.446586E-02 -6.560708E-03
       148  7.183980E-08  6.732613E-02 -6.466347E-04
       149 -1.159337E-04  8.117668E-02  6.141406E-03
       150 -3.164025E-08  8.104829E-02 -8.342415E-04
       151  1.156119E-04  8.098123E-02 -7.811697E-03
       152 -1.606673E-07  9.554768E-02 -1.043533E-03
       153 -7.929765E-05  1.108219E-01  6.345800E-03
       154 -1.863301E-07  1.106751E-01 -1.271256E-03
       155  7.859623E-05  1.105890E-01 -8.890493E-03
       156 -4.190537E-07  1.263383E-01 -1.515750E-03
       157 -3.960377E-05  1.425063E-01  6.237567E-03
       158 -4.107890E-07  1.423477E-01 -1.770945E-03
       159  3.833808E-05  1.422487E-01 -9.780696E-03
       160 -1.117778E-07  1.586829E-01 -2.035861E-03
       161  1.525430E-18  1.335511E-03 -1.802858E-03
       162  2.228809E-04  4.039923E-03 -3.748769E-03
       163  3.909479E-18  4.089152E-03 -3.776405E-03
       164 -2.228809E-04  4.039923E-03 -3.748769E-03
       165  9.133921E-18  8.847804E-03 -5.495629E-03
       166  2.244133E-04  1.508384E-02 -7.160693E-03
       167  1.095599E-17  1.515207E-02 -7.163754E-03
       168 -2.244133E-04  1.508384E-02 -7.160693E-03
       169  1.817204E-17  2.306443E-02 -8.688545E-03
       170  1.907501E-04  3.229343E-02 -1.012898E-02
       171  1.899702E-17  3.234286E-02 -1.013026E-02
       172 -1.907501E-04  3.229343E-02 -1.012898E-02
       173  3.609686E-17  4.292857E-02 -1.146177E-02
       174  1.536696E-04  5.461762E-02 -1.269442E-02
       175  4.161566E-17  5.465716E-02 -1.269461E-02
       176 -1.536696E-04  5.461762E-02 -1.269442E-02
       177  1.942467E-17  6.742265E-02 -1.381974E-02
       178  1.161468E-04  8.105703E-02 -1.484257E-02
       179  3.507859E-17  8.108324E-02 -1.484243E-02
       180 -1.161468E-04  8.105703E-02 -1.484257E-02
       181  6.444057E-17  9.552169E-02 -1.575695E-02
       182  7.650006E-05  1.105876E-01 -1.656485E-02
       183  8.040534E-17  1.106051E-01 -1.656416E-02
       184 -7.650006E-05  1.105876E-01 -1.656485E-02
       185  8.758098E-17  1.261981E-01 -1.725238E-02
       186  4.686452E-05  1.421965E-01 -1.783088E-02
       187  7.893424E-17  1.421763E-01 -1.783076E-02
       188 -4.686452E-05  1.421965E-01 -1.783088E-02
       189  8.332014E-17  1.584454E-01 -1.828459E-02
       190 -1.721389E-06  6.960640E-04 -3.473107E-06
       191 -2.278331E-04  3.677782E-03 -1.851512E-03
       192 -1.498288E-06  3.708909E-03 -1.350235E-05
       193  2.262354E-04  3.693640E-03  1.823567E-03
       194 -1.440969E-06  8.342062E-03 -3.669766E-05
       195 -2.243846E-04  1.479999E-02 -3.588372E-03
       196 -1.051515E-06  1.479401E-02 -7.938970E-05
       197  2.231293E-04  1.485104E-02  3.428656E-03
       198 -7.801113E-07  2.270123E-02 -1.425837E-04
       199 -1.912619E-04  3.206089E-02 -5.152941E-03
       200 -6.153088E-07  3.207486E-02 -2.307830E-04
       201  1.906642E-04  3.215904E-02  4.689694E-03
       202 -4.282738E-07  4.270130E-02 -3.436653E-04
       203 -1.538541E-04  5.446586E-02 -6.560708E-03
       204 -2.525736E-07  5.450447E-02 -4.827442E-04
       205  1.537543E-04  5.461453E-02  5.593360E-03
       206 -7.183980E-08  6.732613E-02 -6.466347E-04
       207 -1.156119E-04  8.098123E-02 -7.811697E-03
       208  3.164025E-08  8.104829E-02 -8.342415E-04
       209  1.159337E-04  8.117668E-02  6.141406E-03
       210  1.606673E-07  9.554768E-02 -1.043533E-03
       211 -7.859623E-05  1.105890E-01 -8.890493E-03
       212  1.863301E-07  1.106751E-01 -1.271256E-03
       213  7.929765E-05  1.108219E-01  6.345800E-03
       214  4.190537E-07  1.263383E-01 -1.515750E-03
       215 -3.833808E-05  1.422487E-01 -9.780696E-03
       216  4.107890E-07  1.423477E-01 -1.770945E-03
       217  3.960377E-05  1.425063E-01  6.237567E-03
       218  1.117778E-07  1.586829E-01 -2.035861E-03
       219  7.463411E-19  9.592170E-04 -4.442347E-06
       220  3.180339E-18  3.947430E-03  1.842988E-03
       221 -8.182961E-07  3.918151E-03 -1.505809E-05
       222  4.365222E-18  3.954782E-03 -1.555366E-05
       223  8.182961E-07  3.918151E-03 -1.505809E-05
       224  3.352565E-18  3.931034E-03 -1.875461E-03
       225  6.566696E-18  8.592357E-03 -3.957438E-05
       226  1.273837E-17  1.508507E-02  3.437984E-03
       227 -5.658703E-07  1.495873E-02 -8.195542E-05
       228  1.389399E-17  1.501848E-02 -8.272676E-05
       229  5.658703E-07  1.495873E-02 -8.195542E-05
       230  1.207247E-17  1.503363E-02 -3.604642E-03
       231  1.642225E-17  2.291518E-02 -1.463744E-04
       232  2.638116E-17  3.235267E-02  4.694451E-03
       233 -3.380965E-07  3.221922E-02 -2.336792E-04
       234  2.619139E-17  3.226449E-02 -2.345953E-04
       235  3.380965E-07  3.221922E-02 -2.336792E-04
       236  2.459874E-17  3.225404E-02 -5.165519E-03
       237  3.121191E-17  4.287550E-02 -3.476244E-04
       238  4.028787E-17  5.476911E-02  5.597800E-03
       239 -1.442808E-07  5.461957E-02 -4.856558E-04
       240  3.392262E-17  5.465824E-02 -4.865922E-04
       241  1.442808E-07  5.461957E-02 -4.856558E-04
       242  3.083020E-17  5.461992E-02 -6.572843E-03
       243  3.249111E-17  6.746068E-02 -6.502306E-04
       244  5.098850E-17  8.129220E-02  6.146161E-03
       245 -1.434904E-11  8.113624E-02 -8.367541E-04
       246  2.120160E-17  8.116651E-02 -8.376142E-04
       247  1.434911E-11  8.113624E-02 -8.367541E-04
       248  4.503229E-17  8.109627E-02 -7.823042E-03
       249  3.753065E-17  9.564145E-02 -1.046368E-03
       250  6.294754E-17  1.108957E-01  6.352165E-03
       251  1.069405E-07  1.107362E-01 -1.273252E-03
       252  7.705163E-17  1.107575E-01 -1.273949E-03
       253 -1.069405E-07  1.107362E-01 -1.273252E-03
       254  7.970596E-17  1.106625E-01 -8.901360E-03
       255  8.604812E-17  1.263936E-01 -1.517329E-03
       256  8.179486E-17  1.425349E-01  6.241132E-03
       257  1.583140E-07  1.423789E-01 -1.771736E-03
       258  7.077738E-17  1.423961E-01 -1.772158E-03
       259 -1.583140E-07  1.423789E-01 -1.771736E-03
       260  7.200769E-17  1.422775E-01 -9.786412E-03
       261  1.042611E-16  1.586846E-01 -2.036709E-03

 stresses (elem, integ.pnt.,sxx,syy,szz,sxy,sxz,syz) for set EALL and time  0.4000000E+00

         1   1  1.220278E+02  1.223543E+02  6.817668E+02 -1.518925E+01  6.294729E+01  2.264277E+01
         1   2  1.155476E+02  1.155650E+02  6.645868E+02  4.474080E+00  1.296378E+01  5.307103E+01
         1   3  2.573830E+00 -3.597887E+01  1.496448E+02 -1.532150E+01  1.655285E+01 -1.549109E+01
         1   4  1.045481E+00 -3.705520E+01  1.449551E+02  4.452024E+00  3.349071E+00  1.508691E+01
         1   5 -3.395145E+01 -2.955219E+01  6.041938E+02 -5.604851E+00 -2.517894E+01  3.600928E+00
         1   6 -1.978810E+01 -2.053193E+01  6.329825E+02  1.735104E+00 -7.742217E+00  1.987842E+00
         1   7 -1.646549E+01 -2.363088E+01  1.516446E+02 -7.094358E+00 -6.826854E+00  3.870459E+01
         1   8 -1.321042E+01 -2.217028E+01  1.584092E+02  2.691223E-01 -2.260436E+00  3.721324E+01
         2   1  1.155476E+02  1.155650E+02  6.645868E+02 -4.474080E+00 -1.296378E+01  5.307103E+01
         2   2  1.220278E+02  1.223543E+02  6.817668E+02  1.518925E+01 -6.294729E+01  2.264277E+01
         2   3  1.045481E+00 -3.705520E+01  1.449551E+02 -4.452024E+00 -3.349071E+00  1.508691E+01
         2   4  2.573830E+00 -3.597887E+01  1.496448E+02  1.532150E+01 -1.655285E+01 -1.549109E+01
         2   5 -1.978810E+01 -2.053193E+01  6.329825E+02 -1.735104E+00  7.742217E+00  1.987842E+00
         2   6 -3.395145E+01 -2.955219E+01  6.041938E+02  5.604851E+00  2.517894E+01  3.600928E+00
         2   7 -1.321042E+01 -2.217028E+01  1.584092E+02 -2.691223E-01  2.260436E+00  3.721324E+01
         2   8 -1.646549E+01 -2.363088E+01  1.516446E+02  7.094358E+00  6.826854E+00  3.870459E+01
         3   1 -3.190044E+00  3.419471E+01 -1.521953E+02 -1.539441E+01 -1.700171E+01 -1.605748E+01
         3   2 -1.806725E+00  3.527193E+01 -1.480478E+02  4.456600E+00 -3.459578E+00  1.446018E+01
         3   3 -1.221543E+02 -1.234504E+02 -6.770346E+02 -1.548265E+01 -6.226955E+01  2.015234E+01
         3   4 -1.158334E+02 -1.164171E+02 -6.605731E+02  4.476911E+00 -1.278490E+01  5.015115E+01
         3   5  1.673757E+01  2.226395E+01 -1.537214E+02 -6.899271E+00  6.997312E+00  3.656258E+01
         3   6  1.307627E+01  1.997498E+01 -1.614715E+02  3.475131E-01  2.319987E+00  3.500756E+01
         3   7  3.433932E+01  2.849706E+01 -5.993146E+02 -5.233644E+00  2.515540E+01 -3.619818E+00
         3   8  2.022953E+01  1.905609E+01 -6.284310E+02  2.035527E+00  7.740986E+00 -5.389325E+00
         4   1 -1.806725E+00  3.527193E+01 -1.480478E+02 -4.456600E+00  3.459578E+00  1.446018E+01
         4   2 -3.190044E+00  3.419471E+01 -1.521953E+02  1.539441E+01  1.700171E+01 -1.605748E+01
         4   3 -1.158334E+02 -1.164171E+02 -6.605731E+02 -4.476911E+00  1.278490E+01  5.015115E+01
         4   4 -1.221543E+02 -1.234504E+02 -6.770346E+02  1.548265E+01  6.226955E+01  2.015234E+01
         4   5  1.307627E+01  1.997498E+01 -1.614715E+02 -3.475131E-01 -2.319987E+00  3.500756E+01
         4   6  1.673757E+01  2.226395E+01 -1.537214E+02  6.899271E+00 -6.997312E+00  3.656258E+01
         4   7  2.022953E+01  1.905609E+01 -6.284310E+02 -2.035527E+00 -7.740986E+00 -5.389325E+00
         4   8  3.433932E+01  2.849706E+01 -5.993146E+02  5.233644E+00 -2.515540E+01 -3.619818E+00
         5   1  1.031921E+01  1.034591E-01  5.822898E+02  8.014109E+00  9.316813E+00  2.645817E+01
         5   2  7.795616E+00 -5.964554E+00  5.698838E+02 -4.925208E+00  4.527265E+00  2.219953E+01
         5   3  1.764450E+01  3.535046E+01  1.692198E+02  7.244968E+00  2.215214E+00  1.913106E+01
         5   4  1.781264E+01  3.526092E+01  1.670375E+02 -5.598348E+00  1.026048E+00  1.752631E+01
         5   5 -7.095377E+00 -1.054701E+01  5.284775E+02 -1.432673E+00 -5.182703E+00  1.127836E+01
         5   6 -3.607068E+00 -7.731161E+00  5.345001E+02 -3.671241E-01 -2.403857E+00  1.155372E+01
         5   7 -5.325603E+00 -1.036269E+01  1.359992E+02 -1.376682E+00 -1.182209E+00  3.497353E+01
         5   8 -4.151465E+00 -9.489194E+00  1.381994E+02 -2.840792E-01 -3.879078E-01  3.218276E+01
         6   1  7.795616E+00 -5.964554E+00  5.698838E+02  4.925208E+00 -4.527265E+00  2.219953E+01
         6   2  1.031921E+01  1.034591E-01  5.822898E+02 -8.014109E+00 -9.316813E+00  2.645817E+01
         6   3  1.781264E+01  3.526092E+01  1.670375E+02  5.598348E+00 -1.026048E+00  1.752631E+01
         6   4  1.764450E+01  3.535046E+01  1.692198E+02 -7.244968E+00 -2.215214E+00  1.913106E+01
         6   5 -3.607068E+00 -7.731161E+00  5.345001E+02  3.671241E-01  2.403857E+00  1.155372E+01
         6   6 -7.095377E+00 -1.054701E+01  5.284775E+02  1.432673E+00  5.182703E+00  1.127836E+01
         6   7 -4.151465E+00 -9.489194E+00  1.381994E+02  2.840792E-01  3.879078E-01  3.218276E+01
         6   8 -5.325603E+00 -1.036269E+01  1.359992E+02  1.376682E+00  1.182209E+00  3.497353E+01
         7   1 -1.803102E+01 -3.726372E+01 -1.716240E+02  7.378167E+00 -2.356430E+00  1.634268E+01
         7   2 -1.829890E+01 -3.787460E+01 -1.699665E+02 -5.567192E+00 -1.066088E+00  1.473433E+01
         7   3 -1.044547E+01 -9.304805E-02 -5.782085E+02  8.004827E+00 -9.433659E+00  1.594347E+01
         7   4 -7.336496E+00  5.798396E+00 -5.659936E+02 -4.843970E+00 -4.535849E+00  1.174819E+01
         7   5  5.400164E+00  1.048073E+01 -1.386030E+02 -1.233687E+00  1.226296E+00  3.109030E+01
         7   6  3.972390E+00  8.805041E+00 -1.413081E+02 -2.423171E-01  4.231033E-01  2.831024E+01
         7   7  7.280909E+00  1.014025E+01 -5.245739E+02 -1.234783E+00  5.152498E+00 -2.799501E+00
         7   8  3.911035E+00  7.063053E+00 -5.309711E+02 -2.039071E-01  2.402447E+00 -2.510100E+00
         8   1 -1.829890E+01 -3.787460E+01 -1.699665E+02  5.567192E+00  1.066088E+00  1.473433E+01
         8   2 -1.803102E+01 -3.726372E+01 -1.716240E+02 -7.378167E+00  2.356430E+00  1.634268E+01
         8   3 -7.336496E+00  5.798396E+00 -5.659936E+02  4.843970E+00  4.535849E+00  1.174819E+01
         8   4 -1.044547E+01 -9.304805E-02 -5.782085E+02 -8.004827E+00  9.433659E+00  1.594347E+01
         8   5  3.972390E+00  8.805041E+00 -1.413081E+02  2.423171E-01 -4.231033E-01  2.831024E+01
         8   6  5.400164E+00  1.048073E+01 -1.386030E+02  1.233687E+00 -1.226296E+00  3.109030E+01
         8   7  3.911035E+00  7.063053E+00 -5.309711E+02  2.039071E-01 -2.402447E+00 -2.510100E+00
         8   8  7.280909E+00  1.014025E+01 -5.245739E+02  1.234783E+00 -5.152498E+00 -2.799501E+00
         9   1  5.606482E+00  1.202842E+01  4.956476E+02 -7.387562E-01  1.362010E+00  2.234804E+01
         9   2  4.348829E+00  1.019444E+01  4.928431E+02  1.598386E+00 -2.624057E-01  1.958137E+01
         9   3  1.191984E+00  2.207763E+00  1.311831E+02 -8.841326E-01  7.535534E-01  2.639059E+01
         9   4  2.299913E-01  2.703649E-01  1.297288E+02  1.514614E+00  3.275408E-01  2.293214E+01
         9   5 -1.815681E+00 -3.751158E+00  4.445416E+02 -4.600918E-01 -1.900062E+00  1.726930E+01
         9   6 -9.226662E-01 -2.678006E+00  4.455919E+02 -3.167047E-01 -1.271734E+00  1.631808E+01
         9   7 -1.830522E+00 -3.757477E+00  1.163676E+02 -2.082690E-01 -1.669063E-01  3.183450E+01
         9   8 -1.447546E+00 -3.183125E+00  1.167770E+02 -1.421955E-02 -5.723478E-03  2.819285E+01
        10   1  4.348829E+00  1.019444E+01  4.928431E+02 -1.598386E+00  2.624057E-01  1.958137E+01
        10   2  5.606482E+00  1.202842E+01  4.956476E+02  7.387562E-01 -1.362010E+00  2.234804E+01
        10   3  2.299913E-01  2.703649E-01  1.297288E+02 -1.514614E+00 -3.275408E-01  2.293214E+01
        10   4  1.191984E+00  2.207763E+00  1.311831E+02  8.841326E-01 -7.535534E-01  2.639059E+01
        10   5 -9.226662E-01 -2.678006E+00  4.455919E+02  3.167047E-01  1.271734E+00  1.631808E+01
        10   6 -1.815681E+00 -3.751158E+00  4.445416E+02  4.600918E-01  1.900062E+00  1.726930E+01
        10   7 -1.447546E+00 -3.183125E+00  1.167770E+02  1.421955E-02  5.723478E-03  2.819285E+01
        10   8 -1.830522E+00 -3.757477E+00  1.163676E+02  2.082690E-01  1.669063E-01  3.183450E+01
        11   1 -1.341935E+00 -2.325503E+00 -1.335096E+02 -7.927155E-01 -8.078258E-01  2.236842E+01
        11   2 -5.382117E-01 -1.012475E+00 -1.323244E+02  1.546739E+00 -3.228197E-01  1.890561E+01
        11   3 -5.561283E+00 -1.191671E+01 -4.927956E+02 -6.632332E-01 -1.427111E+00  7.163534E+00
        11   4 -4.162752E+00 -1.035768E+01 -4.901233E+02  1.738157E+00  2.381675E-01  4.386707E+00
        11   5  1.794478E+00  4.895823E+00 -1.189403E+02 -1.205632E-01  1.484547E-01  2.716296E+01
        11   6  1.265716E+00  3.630861E+00 -1.194903E+02  9.732618E-03  1.010583E-02  2.355479E+01
        11   7  1.905719E+00  4.056203E+00 -4.419241E+02 -3.337504E-01  1.873654E+00  3.010099E-01
        11   8  1.133482E+00  2.758179E+00 -4.431564E+02 -1.943636E-01  1.274047E+00 -5.986463E-01
        12   1 -5.382117E-01 -1.012475E+00 -1.323244E+02 -1.546739E+00  3.228197E-01  1.890561E+01
        12   2 -1.341935E+00 -2.325503E+00 -1.335096E+02  7.927155E-01  8.078258E-01  2.236842E+01
        12   3 -4.162752E+00 -1.035768E+01 -4.901233E+02 -1.738157E+00 -2.381675E-01  4.386707E+00
        12   4 -5.561283E+00 -1.191671E+01 -4.927956E+02  6.632332E-01  1.427111E+00  7.163534E+00
        12   5  1.265716E+00  3.630861E+00 -1.194903E+02 -9.732618E-03 -1.010583E-02  2.355479E+01
        12   6  1.794478E+00  4.895823E+00 -1.189403E+02  1.205632E-01 -1.484547E-01  2.716296E+01
        12   7  1.133482E+00  2.758179E+00 -4.431564E+02  1.943636E-01 -1.274047E+00 -5.986463E-01
        12   8  1.905719E+00  4.056203E+00 -4.419241E+02  3.337504E-01 -1.873654E+00  3.010099E-01
        13   1  7.121608E-01  1.879942E+00  4.084038E+02  6.156320E-01 -4.992995E-01  2.125093E+01
        13   2  4.681491E-01  8.650823E-01  4.077838E+02 -2.153896E-01 -6.937451E-01  1.908651E+01
        13   3  1.788001E+00  4.925123E+00  1.095950E+02  3.781093E-01  1.780109E-01  2.830110E+01
        13   4  1.491947E+00  4.009702E+00  1.092486E+02 -4.160755E-01  1.311453E-01  2.502496E+01
        13   5 -6.448729E-01 -1.140539E+00  3.591364E+02 -2.719244E-01 -1.227076E+00  1.883370E+01
        13   6 -3.060577E-01 -5.735069E-01  3.594400E+02 -1.073744E-01 -1.016097E+00  1.731042E+01
        13   7 -8.529439E-01 -8.453459E-01  9.404020E+01 -7.373607E-02 -5.113423E-03  3.055576E+01
        13   8 -6.414716E-01 -5.546481E-01  9.434556E+01  3.478058E-02  5.812716E-02  2.704615E+01
        14   1  4.681491E-01  8.650823E-01  4.077838E+02  2.153896E-01  6.937451E-01  1.908651E+01
        14   2  7.121608E-01  1.879942E+00  4.084038E+02 -6.156320E-01  4.992995E-01  2.125093E+01
        14   3  1.491947E+00  4.009702E+00  1.092486E+02  4.160755E-01 -1.311453E-01  2.502496E+01
        14   4  1.788001E+00  4.925123E+00  1.095950E+02 -3.781093E-01 -1.780109E-01  2.830110E+01
        14   5 -3.060577E-01 -5.735069E-01  3.594400E+02  1.073744E-01  1.016097E+00  1.731042E+01
        14   6 -6.448729E-01 -1.140539E+00  3.591364E+02  2.719244E-01  1.227076E+00  1.883370E+01
        14   7 -6.414716E-01 -5.546481E-01  9.434556E+01 -3.478058E-02 -5.812716E-02  2.704615E+01
        14   8 -8.529439E-01 -8.453459E-01  9.404020E+01  7.373607E-02  5.113423E-03  3.055576E+01
        15   1 -1.870314E+00 -3.883003E+00 -1.119068E+02  4.502909E-01 -1.975694E-01  2.373781E+01
        15   2 -1.688843E+00 -3.571166E+00 -1.116513E+02 -3.961223E-01 -1.248854E-01  2.044576E+01
        15   3 -6.971939E-01 -1.328414E+00 -4.065195E+02  7.062290E-01  4.316565E-01  4.176453E+00
        15   4 -3.140889E-01 -5.747057E-01 -4.059320E+02 -1.025731E-01  6.800530E-01  2.002068E+00
        15   5  8.462159E-01  2.779516E+00 -9.652312E+01 -1.739530E-02 -1.000320E-02  2.589608E+01
        15   6  5.325202E-01  1.880650E+00 -9.678575E+01  4.880831E-02 -5.203003E-02  2.241490E+01
        15   7  7.096611E-01  1.836138E+00 -3.575600E+02 -1.726979E-01  1.204366E+00  1.697188E+00
        15   8  4.582359E-01  1.039857E+00 -3.578869E+02 -5.337873E-03  1.019893E+00  2.195933E-01
        16   1 -1.688843E+00 -3.571166E+00 -1.116513E+02  3.961223E-01  1.248854E-01  2.044576E+01
        16   2 -1.870314E+00 -3.883003E+00 -1.119068E+02 -4.502909E-01  1.975694E-01  2.373781E+01
        16   3 -3.140889E-01 -5.747057E-01 -4.059320E+02  1.025731E-01 -6.800530E-01  2.002068E+00
        16   4 -6.971939E-01 -1.328414E+00 -4.065195E+02 -7.062290E-01 -4.316565E-01  4.176453E+00
        16   5  5.325202E-01  1.880650E+00 -9.678575E+01 -4.880831E-02  5.203003E-02  2.241490E+01
        16   6  8.462159E-01  2.779516E+00 -9.652312E+01  1.739530E-02  1.000320E-02  2.589608E+01
        16   7  4.582359E-01  1.039857E+00 -3.578869E+02  5.337873E-03 -1.019893E+00  2.195933E-01
        16   8  7.096611E-01  1.836138E+00 -3.575600E+02  1.726979E-01 -1.204366E+00  1.697188E+00
        17   1  6.491871E-01  2.290055E+00  3.229530E+02  2.016669E-02 -8.477549E-01  1.947935E+01
        17   2  4.400664E-01  1.614752E+00  3.227578E+02  1.696092E-01 -9.398039E-01  1.785821E+01
        17   3  4.961315E-01  2.274157E+00  8.558888E+01 -1.152228E-01  8.035455E-02  2.943361E+01
        17   4  1.848911E-01  1.363310E+00  8.537873E+01  5.627200E-02  7.912370E-02  2.596441E+01
        17   5 -5.898167E-01 -3.157788E-01  2.735666E+02 -9.249771E-02 -8.684334E-01  1.884203E+01
        17   6 -3.070927E-01 -6.111956E-02  2.737602E+02 -4.727459E-01 -9.846921E-01  1.688134E+01
        17   7 -5.816445E-01 -1.990297E-01  7.158686E+01  1.103472E-01  5.377779E-02  2.939161E+01
        17   8 -2.776901E-01  2.603197E-01  7.196311E+01  3.783242E-02  4.299805E-02  2.608753E+01
        18   1  4.400664E-01  1.614752E+00  3.227578E+02 -1.696092E-01  9.398039E-01  1.785821E+01
        18   2  6.491871E-01  2.290055E+00  3.229530E+02 -2.016669E-02  8.477549E-01  1.947935E+01
        18   3  1.848911E-01  1.363310E+00  8.537873E+01 -5.627200E-02 -7.912370E-02  2.596441E+01
        18   4  4.961315E-01  2.274157E+00  8.558888E+01  1.152228E-01 -8.035455E-02  2.943361E+01
        18   5 -3.070927E-01 -6.111956E-02  2.737602E+02  4.727459E-01  9.846921E-01  1.688134E+01
        18   6 -5.898167E-01 -3.157788E-01  2.735666E+02  9.249771E-02  8.684334E-01  1.884203E+01
        18   7 -2.776901E-01  2.603197E-01  7.196311E+01 -3.783242E-02 -4.299805E-02  2.608753E+01
        18   8 -5.816445E-01 -1.990297E-01  7.158686E+01 -1.103472E-01 -5.377779E-02  2.939161E+01
        19   1 -5.557944E-01 -2.108010E-01 -8.799943E+01 -7.168872E-02 -9.399701E-02  2.505356E+01
        19   2 -3.130965E-01  1.428399E-01 -8.764976E+01  6.762845E-02 -6.738875E-02  2.156851E+01
        19   3 -6.326962E-01 -1.461921E+00 -3.218094E+02  1.034743E-01  7.965099E-01  3.117831E+00
        19   4 -3.554597E-01 -1.017480E+00 -3.215858E+02  2.653502E-01  9.269682E-01  1.476835E+00
        19   5  5.621891E-01  2.784850E+00 -7.398480E+01  1.447883E-01 -7.165646E-02  2.527478E+01
        19   6  2.178783E-01  1.820491E+00 -7.416478E+01  4.853012E-02 -5.025297E-02  2.199629E+01
        19   7  6.153453E-01  1.403931E+00 -2.728354E+02 -8.751604E-03  8.689530E-01  3.666303E+00
        19   8  3.869043E-01  8.862565E-01 -2.728981E+02 -3.827330E-01  9.922430E-01  1.759822E+00
        20   1 -3.130965E-01  1.428399E-01 -8.764976E+01 -6.762845E-02  6.738875E-02  2.156851E+01
        20   2 -5.557944E-01 -2.108010E-01 -8.799943E+01  7.168872E-02  9.399701E-02  2.505356E+01
        20   3 -3.554597E-01 -1.017480E+00 -3.215858E+02 -2.653502E-01 -9.269682E-01  1.476835E+00
        20   4 -6.326962E-01 -1.461921E+00 -3.218094E+02 -1.034743E-01 -7.965099E-01  3.117831E+00
        20   5  2.178783E-01  1.820491E+00 -7.416478E+01 -4.853012E-02  5.025297E-02  2.199629E+01
        20   6  5.621891E-01  2.784850E+00 -7.398480E+01 -1.447883E-01  7.165646E-02  2.527478E+01
        20   7  3.869043E-01  8.862565E-01 -2.728981E+02  3.827330E-01 -9.922430E-01  1.759822E+00
        20   8  6.153453E-01  1.403931E+00 -2.728354E+02  8.751604E-03 -8.689530E-01  3.666303E+00
        21   1  6.364982E-01  2.152481E+00  2.375266E+02  2.249469E-01 -1.185165E+00  1.742282E+01