
 displacements (vx,vy,vz) for set NALL and time  0.1000000E+01

         1  0.000000E+00  0.000000E+00  0.000000E+00
         2 -1.301197E-02  0.000000E+00  0.000000E+00
         3 -1.301197E-02 -1.301197E-02  0.000000E+00
         4  2.282039E-15 -1.301197E-02  0.000000E+00
         5  9.101657E-10  9.101800E-10  2.278213E-01
         6 -1.301197E-02  9.101714E-10  2.278213E-01
         7 -1.301197E-02 -1.301197E-02  2.278213E-01
         8  9.101742E-10 -1.301197E-02  2.278213E-01
         9 -3.252991E-03  2.919957E-14  0.000000E+00
        10 -6.505983E-03  7.595563E-14  0.000000E+00
        11 -9.758974E-03  2.839167E-14  0.000000E+00
        12 -1.301197E-02 -3.252991E-03  0.000000E+00
        13 -1.301197E-02 -6.505983E-03  0.000000E+00
        14 -1.301197E-02 -9.758974E-03  0.000000E+00
        15 -9.758974E-03 -1.301197E-02  0.000000E+00
        16 -6.505983E-03 -1.301197E-02  0.000000E+00
        17 -3.252991E-03 -1.301197E-02  0.000000E+00
        18  3.041387E-14 -9.758974E-03  0.000000E+00
        19  7.686069E-14 -6.505983E-03  0.000000E+00
        20  2.895694E-14 -3.252991E-03  0.000000E+00
        21 -3.252991E-03  9.370590E-10  2.278213E-01
        22 -6.505983E-03  9.007042E-10  2.278213E-01
        23 -9.758974E-03  9.370547E-10  2.278213E-01
        24 -1.301197E-02 -3.252991E-03  2.278213E-01
        25 -1.301197E-02 -6.505983E-03  2.278213E-01
        26 -1.301197E-02 -9.758974E-03  2.278213E-01
        27 -9.758974E-03 -1.301197E-02  2.278213E-01
        28 -6.505983E-03 -1.301197E-02  2.278213E-01
        29 -3.252991E-03 -1.301197E-02  2.278213E-01
        30  9.370532E-10 -9.758974E-03  2.278213E-01
        31  9.006983E-10 -6.505983E-03  2.278213E-01
        32  9.370489E-10 -3.252991E-03  2.278213E-01
        33 -1.301197E-02 -9.274710E-15  1.423883E-02
        34 -1.301197E-02 -1.413307E-13  2.847766E-02
        35 -1.301197E-02 -5.149385E-14  4.271649E-02
        36 -1.301197E-02 -4.909813E-15  5.695532E-02
        37 -1.301197E-02  3.720195E-13  7.119415E-02
        38 -1.301197E-02 -8.821605E-13  8.543298E-02
        39 -1.301197E-02 -9.625084E-13  9.967180E-02
        40 -1.301197E-02 -5.197914E-13  1.139106E-01
        41 -1.301197E-02  6.045855E-12  1.281495E-01
        42 -1.301197E-02 -8.020126E-12  1.423883E-01
        43 -1.301197E-02 -1.411279E-11  1.566271E-01
        44 -1.301197E-02 -9.077018E-12  1.708660E-01
        45 -1.301197E-02  8.812393E-11  1.851048E-01
        46 -1.301197E-02 -6.133158E-11  1.993436E-01
        47 -1.301196E-02 -2.178255E-10  2.135824E-01
        48 -2.178300E-10 -2.178170E-10  2.135824E-01
        49 -6.133478E-11 -6.132324E-11  1.993436E-01
        50  8.812196E-11  8.813203E-11  1.851048E-01
        51 -9.077912E-12 -9.069070E-12  1.708660E-01
        52 -1.411272E-11 -1.410509E-11  1.566271E-01
        53 -8.019325E-12 -8.012711E-12  1.423883E-01
        54  6.047173E-12  6.052912E-12  1.281495E-01
        55 -5.181228E-13 -5.131866E-13  1.139106E-01
        56 -9.607199E-13 -9.562225E-13  9.967180E-02
        57 -8.805343E-13 -8.763575E-13  8.543298E-02
        58  3.735294E-13  3.775136E-13  7.119415E-02
        59 -3.744495E-15 -5.772323E-17  5.695532E-02
        60 -5.032584E-14 -4.660669E-14  4.271649E-02
        61 -1.405128E-13 -1.372724E-13  2.847766E-02
        62 -8.058244E-15 -5.926341E-15  1.423883E-02
        63 -1.301197E-02 -1.301197E-02  1.423883E-02
        64 -1.301197E-02 -1.301197E-02  2.847766E-02
        65 -1.301197E-02 -1.301197E-02  4.271649E-02
        66 -1.301197E-02 -1.301197E-02  5.695532E-02
        67 -1.301197E-02 -1.301197E-02  7.119415E-02
        68 -1.301197E-02 -1.301197E-02  8.543298E-02
        69 -1.301197E-02 -1.301197E-02  9.967180E-02
        70 -1.301197E-02 -1.301197E-02  1.139106E-01
        71 -1.301197E-02 -1.301197E-02  1.281495E-01
        72 -1.301197E-02 -1.301197E-02  1.423883E-01
        73 -1.301197E-02 -1.301197E-02  1.566271E-01
        74 -1.301197E-02 -1.301197E-02  1.708660E-01
        75 -1.301197E-02 -1.301197E-02  1.851048E-01
        76 -1.301197E-02 -1.301197E-02  1.993436E-01
        77 -1.301196E-02 -1.301196E-02  2.135824E-01
        78 -5.256064E-15 -1.301197E-02  1.423883E-02
        79 -1.366384E-13 -1.301197E-02  2.847766E-02
        80 -4.590180E-14 -1.301197E-02  4.271649E-02
        81  1.247876E-15 -1.301197E-02  5.695532E-02
        82  3.790909E-13 -1.301197E-02  7.119415E-02
        83 -8.745063E-13 -1.301197E-02  8.543298E-02
        84 -9.543189E-13 -1.301197E-02  9.967180E-02
        85 -5.114186E-13 -1.301197E-02  1.139106E-01
        86  6.054323E-12 -1.301197E-02  1.281495E-01
        87 -8.011798E-12 -1.301197E-02  1.423883E-01
        88 -1.410489E-11 -1.301197E-02  1.566271E-01
        89 -9.069809E-12 -1.301197E-02  1.708660E-01
        90  8.813023E-11 -1.301197E-02  1.851048E-01
        91 -6.132639E-11 -1.301197E-02  1.993436E-01
        92 -2.178215E-10 -1.301196E-02  2.135824E-01
        93 -6.505983E-03 -3.252991E-03  0.000000E+00
        94 -3.252991E-03 -6.505983E-03  0.000000E+00
        95 -6.505983E-03 -6.505983E-03  0.000000E+00
        96 -9.758974E-03 -6.505983E-03  0.000000E+00
        97 -6.505983E-03 -9.758974E-03  0.000000E+00
        98 -6.505983E-03 -3.252991E-03  2.278213E-01
        99 -3.252991E-03 -6.505983E-03  2.278213E-01
       100 -6.505983E-03 -6.505983E-03  2.278213E-01
       101 -9.758974E-03 -6.505983E-03  2.278213E-01
       102 -6.505983E-03 -9.758974E-03  2.278213E-01
       103 -6.505983E-03 -1.835757E-14  1.423883E-02
       104 -3.252991E-03 -1.130902E-13  2.847766E-02
       105 -6.505983E-03 -1.091087E-13  2.847766E-02
       106 -9.758974E-03 -1.148796E-13  2.847766E-02
       107 -6.505983E-03 -1.329606E-13  4.271649E-02
       108 -3.252991E-03  1.521849E-13  5.695532E-02
       109 -6.505983E-03  3.286679E-13  5.695532E-02
       110 -9.758974E-03  1.497202E-13  5.695532E-02
       111 -6.505983E-03  2.603203E-13  7.119415E-02
       112 -3.252991E-03 -5.756402E-13  8.543298E-02
       113 -6.505983E-03 -2.720605E-13  8.543298E-02
       114 -9.758974E-03 -5.785298E-13  8.543298E-02
       115 -6.505983E-03 -1.625147E-12  9.967180E-02
       116 -3.252991E-03  1.116075E-12  1.139106E-01
       117 -6.505983E-03  2.606470E-12  1.139106E-01
       118 -9.758974E-03  1.112754E-12  1.139106E-01
       119 -6.505983E-03  3.986324E-12  1.281495E-01
       120 -3.252991E-03 -4.278743E-12  1.423883E-01
       121 -6.505983E-03  2.420790E-13  1.423883E-01
       122 -9.758974E-03 -4.282470E-12  1.423883E-01
       123 -6.505983E-03 -1.969536E-11  1.566271E-01
       124 -3.252991E-03  8.256550E-12  1.708660E-01
       125 -6.505983E-03  2.294775E-11  1.708660E-01
       126 -9.758974E-03  8.252568E-12  1.708660E-01
       127 -6.505983E-03  6.017402E-11  1.851048E-01
       128 -3.252991E-03  1.824704E-11  1.993436E-01
       129 -6.505983E-03  1.066397E-10  1.993436E-01
       130 -9.758974E-03  1.824286E-11  1.993436E-01
       131 -6.505983E-03 -4.087776E-10  2.135824E-01
       132 -1.301197E-02 -6.505983E-03  1.423883E-02
       133 -1.301197E-02 -3.252991E-03  2.847766E-02
       134 -1.301197E-02 -6.505983E-03  2.847766E-02
       135 -1.301197E-02 -9.758974E-03  2.847766E-02
       136 -1.301197E-02 -6.505983E-03  4.271649E-02
       137 -1.301197E-02 -3.252991E-03  5.695532E-02
       138 -1.301197E-02 -6.505983E-03  5.695532E-02
       139 -1.301197E-02 -9.758974E-03  5.695532E-02
       140 -1.301197E-02 -6.505983E-03  7.119415E-02
       141 -1.301197E-02 -3.252991E-03  8.543298E-02
       142 -1.301197E-02 -6.505983E-03  8.543298E-02
       143 -1.301197E-02 -9.758974E-03  8.543298E-02
       144 -1.301197E-02 -6.505983E-03  9.967180E-02
       145 -1.301197E-02 -3.252991E-03  1.139106E-01
       146 -1.301197E-02 -6.505983E-03  1.139106E-01
       147 -1.301197E-02 -9.758974E-03  1.139106E-01
       148 -1.301197E-02 -6.505983E-03  1.281495E-01
       149 -1.301197E-02 -3.252991E-03  1.423883E-01
       150 -1.301197E-02 -6.505983E-03  1.423883E-01
       151 -1.301197E-02 -9.758974E-03  1.423883E-01
       152 -1.301197E-02 -6.505983E-03  1.566271E-01
       153 -1.301197E-02 -3.252991E-03  1.708660E-01
       154 -1.301197E-02 -6.505983E-03  1.708660E-01
       155 -1.301197E-02 -9.758974E-03  1.708660E-01
       156 -1.301197E-02 -6.505983E-03  1.851048E-01
       157 -1.301197E-02 -3.252991E-03  1.993436E-01
       158 -1.301197E-02 -6.505983E-03  1.993436E-01
       159 -1.301197E-02 -9.758974E-03  1.993436E-01
       160 -1.301196E-02 -6.505983E-03  2.135824E-01
       161 -6.505983E-03 -1.301197E-02  1.423883E-02
       162 -9.758974E-03 -1.301197E-02  2.847766E-02
       163 -6.505983E-03 -1.301197E-02  2.847766E-02
       164 -3.252991E-03 -1.301197E-02  2.847766E-02
       165 -6.505983E-03 -1.301197E-02  4.271649E-02
       166 -9.758974E-03 -1.301197E-02  5.695532E-02
       167 -6.505983E-03 -1.301197E-02  5.695532E-02
       168 -3.252991E-03 -1.301197E-02  5.695532E-02
       169 -6.505983E-03 -1.301197E-02  7.119415E-02
       170 -9.758974E-03 -1.301197E-02  8.543298E-02
       171 -6.505983E-03 -1.301197E-02  8.543298E-02
       172 -3.252991E-03 -1.301197E-02  8.543298E-02
       173 -6.505983E-03 -1.301197E-02  9.967180E-02
       174 -9.758974E-03 -1.301197E-02  1.139106E-01
       175 -6.505983E-03 -1.301197E-02  1.139106E-01
       176 -3.252991E-03 -1.301197E-02  1.139106E-01
       177 -6.505983E-03 -1.301197E-02  1.281495E-01
       178 -9.758974E-03 -1.301197E-02  1.423883E-01
       179 -6.505983E-03 -1.301197E-02  1.423883E-01
       180 -3.252991E-03 -1.301197E-02  1.423883E-01
       181 -6.505983E-03 -1.301197E-02  1.566271E-01
       182 -9.758974E-03 -1.301197E-02  1.708660E-01
       183 -6.505983E-03 -1.301197E-02  1.708660E-01
       184 -3.252991E-03 -1.301197E-02  1.708660E-01
       185 -6.505983E-03 -1.301197E-02  1.851048E-01
       186 -9.758974E-03 -1.301197E-02  1.993436E-01
       187 -6.505983E-03 -1.301197E-02  1.993436E-01
       188 -3.252991E-03 -1.301197E-02  1.993436E-01
       189 -6.505983E-03 -1.301196E-02  2.135824E-01
       190 -1.753328E-14 -6.505983E-03  1.423883E-02
       191 -1.122039E-13 -9.758974E-03  2.847766E-02
       192 -1.082536E-13 -6.505983E-03  2.847766E-02
       193 -1.141104E-13 -3.252991E-03  2.847766E-02
       194 -1.320105E-13 -6.505983E-03  4.271649E-02
       195  1.534062E-13 -9.758974E-03  5.695532E-02
       196  3.299030E-13 -6.505983E-03  5.695532E-02
       197  1.509453E-13 -3.252991E-03  5.695532E-02
       198  2.617930E-13 -6.505983E-03  7.119415E-02
       199 -5.738542E-13 -9.758974E-03  8.543298E-02
       200 -2.703222E-13 -6.505983E-03  8.543298E-02
       201 -5.768533E-13 -3.252991E-03  8.543298E-02
       202 -1.623349E-12 -6.505983E-03  9.967180E-02
       203  1.117766E-12 -9.758974E-03  1.139106E-01
       204  2.608081E-12 -6.505983E-03  1.139106E-01
       205  1.114350E-12 -3.252991E-03  1.139106E-01
       206  3.987648E-12 -6.505983E-03  1.281495E-01
       207 -4.277924E-12 -9.758974E-03  1.423883E-01
       208  2.428663E-13 -6.505983E-03  1.423883E-01
       209 -4.281677E-12 -3.252991E-03  1.423883E-01
       210 -1.969526E-11 -6.505983E-03  1.566271E-01
       211  8.255705E-12 -9.758974E-03  1.708660E-01
       212  2.294689E-11 -6.505983E-03  1.708660E-01
       213  8.251708E-12 -3.252991E-03  1.708660E-01
       214  6.017205E-11 -6.505983E-03  1.851048E-01
       215  1.824385E-11 -9.758974E-03  1.993436E-01
       216  1.066365E-10 -6.505983E-03  1.993436E-01
       217  1.823961E-11 -3.252991E-03  1.993436E-01
       218 -4.087821E-10 -6.505983E-03  2.135824E-01
       219 -6.505983E-03 -6.505983E-03  1.423883E-02
       220 -6.505983E-03 -3.252991E-03  2.847766E-02
       221 -3.252991E-03 -6.505983E-03  2.847766E-02
       222 -6.505983E-03 -6.505983E-03  2.847766E-02
       223 -9.758974E-03 -6.505983E-03  2.847766E-02
       224 -6.505983E-03 -9.758974E-03  2.847766E-02
       225 -6.505983E-03 -6.505983E-03  4.271649E-02
       226 -6.505983E-03 -3.252991E-03  5.695532E-02
       227 -3.252991E-03 -6.505983E-03  5.695532E-02
       228 -6.505983E-03 -6.505983E-03  5.695532E-02
       229 -9.758974E-03 -6.505983E-03  5.695532E-02
       230 -6.505983E-03 -9.758974E-03  5.695532E-02
       231 -6.505983E-03 -6.505983E-03  7.119415E-02
       232 -6.505983E-03 -3.252991E-03  8.543298E-02
       233 -3.252991E-03 -6.505983E-03  8.543298E-02
       234 -6.505983E-03 -6.505983E-03  8.543298E-02
       235 -9.758974E-03 -6.505983E-03  8.543298E-02
       236 -6.505983E-03 -9.758974E-03  8.543298E-02
       237 -6.505983E-03 -6.505983E-03  9.967180E-02
       238 -6.505983E-03 -3.252991E-03  1.139106E-01
       239 -3.252991E-03 -6.505983E-03  1.139106E-01
       240 -6.505983E-03 -6.505983E-03  1.139106E-01
       241 -9.758974E-03 -6.505983E-03  1.139106E-01
       242 -6.505983E-03 -9.758974E-03  1.139106E-01
       243 -6.505983E-03 -6.505983E-03  1.281495E-01
       244 -6.505983E-03 -3.252991E-03  1.423883E-01
       245 -3.252991E-03 -6.505983E-03  1.423883E-01
       246 -6.505983E-03 -6.505983E-03  1.423883E-01
       247 -9.758974E-03 -6.505983E-03  1.423883E-01
       248 -6.505983E-03 -9.758974E-03  1.423883E-01
       249 -6.505983E-03 -6.505983E-03  1.566271E-01
       250 -6.505983E-03 -3.252991E-03  1.708660E-01
       251 -3.252991E-03 -6.505983E-03  1.708660E-01
       252 -6.505983E-03 -6.505983E-03  1.708660E-01
       253 -9.758974E-03 -6.505983E-03  1.708660E-01
       254 -6.505983E-03 -9.758974E-03  1.708660E-01
       255 -6.505983E-03 -6.505983E-03  1.851048E-01
       256 -6.505983E-03 -3.252991E-03  1.993436E-01
       257 -3.252991E-03 -6.505983E-03  1.993436E-01
       258 -6.505983E-03 -6.505983E-03  1.993436E-01
       259 -9.758974E-03 -6.505983E-03  1.993436E-01
       260 -6.505983E-03 -9.758974E-03  1.993436E-01
       261 -6.505983E-03 -6.505983E-03  2.135824E-01

 stresses (elem, integ.pnt.,sxx,syy,szz,sxy,sxz,syz) for set EALL and time  0.1000000E+01

         1   1 -1.154964E-01 -1.154964E-01  9.898474E+02 -2.067455E-09  6.347352E-09  6.371465E-09
         1   2 -1.154964E-01 -1.154964E-01  9.898474E+02 -1.805833E-09  4.319261E-09 -2.661755E-09
         1   3 -1.154964E-01 -1.154964E-01  9.898474E+02 -1.796918E-09 -2.663058E-09  4.332012E-09
         1   4 -1.154964E-01 -1.154964E-01  9.898474E+02 -2.166164E-09 -3.362363E-09 -3.361708E-09
         1   5 -1.154965E-01 -1.154965E-01  9.898474E+02  4.959682E-09  4.928697E-09  4.933483E-09
         1   6 -1.154964E-01 -1.154964E-01  9.898474E+02  4.288393E-09 -1.513868E-09  1.006670E-09
         1   7 -1.154964E-01 -1.154964E-01  9.898474E+02  4.289621E-09  1.012589E-09 -1.498711E-09
         1   8 -1.154964E-01 -1.154964E-01  9.898474E+02  4.378347E-09 -3.815049E-09 -3.812887E-09
         2   1 -1.154964E-01 -1.154964E-01  9.898474E+02  1.801528E-09 -4.328427E-09 -2.668628E-09
         2   2 -1.154964E-01 -1.154964E-01  9.898474E+02  2.083867E-09 -6.353248E-09  6.327414E-09
         2   3 -1.154964E-01 -1.154964E-01  9.898474E+02  2.166987E-09  3.363856E-09 -3.364590E-09
         2   4 -1.154964E-01 -1.154964E-01  9.898474E+02  1.811653E-09  2.669081E-09  4.317444E-09
         2   5 -1.154964E-01 -1.154964E-01  9.898474E+02 -4.292163E-09  1.499695E-09  1.013932E-09
         2   6 -1.154965E-01 -1.154965E-01  9.898474E+02 -4.964277E-09 -4.939192E-09  4.937411E-09
         2   7 -1.154964E-01 -1.154964E-01  9.898474E+02 -4.378487E-09  3.816008E-09 -3.814791E-09
         2   8 -1.154964E-01 -1.154964E-01  9.898474E+02 -4.290861E-09 -1.007785E-09 -1.513170E-09
         3   1 -1.154964E-01 -1.154964E-01  9.898474E+02  1.804484E-09 -2.663851E-09 -4.320629E-09
         3   2 -1.154964E-01 -1.154964E-01  9.898474E+02  2.170814E-09 -3.360878E-09  3.363743E-09
         3   3 -1.154964E-01 -1.154964E-01  9.898474E+02  2.075434E-09  6.350530E-09 -6.349480E-09
         3   4 -1.154964E-01 -1.154964E-01  9.898474E+02  1.805656E-09  4.327057E-09  2.666380E-09
         3   5 -1.154964E-01 -1.154964E-01  9.898474E+02 -4.289582E-09  1.012309E-09  1.517355E-09
         3   6 -1.154964E-01 -1.154964E-01  9.898474E+02 -4.377473E-09 -3.811568E-09  3.818121E-09
         3   7 -1.154965E-01 -1.154965E-01  9.898474E+02 -4.961493E-09  4.938620E-09 -4.929640E-09
         3   8 -1.154964E-01 -1.154964E-01  9.898474E+02 -4.289356E-09 -1.499907E-09 -1.009714E-09
         4   1 -1.154964E-01 -1.154964E-01  9.898474E+02 -2.161428E-09  3.365159E-09  3.361501E-09
         4   2 -1.154964E-01 -1.154964E-01  9.898474E+02 -1.803991E-09  2.667348E-09 -4.326609E-09
         4   3 -1.154964E-01 -1.154964E-01  9.898474E+02 -1.802580E-09 -4.321720E-09  2.666425E-09
         4   4 -1.154964E-01 -1.154964E-01  9.898474E+02 -2.076623E-09 -6.349606E-09 -6.350562E-09
         4   5 -1.154964E-01 -1.154964E-01  9.898474E+02  4.379394E-09  3.817855E-09  3.812706E-09
         4   6 -1.154964E-01 -1.154964E-01  9.898474E+02  4.290762E-09 -1.008579E-09  1.496937E-09
         4   7 -1.154964E-01 -1.154964E-01  9.898474E+02  4.291722E-09  1.514201E-09 -1.011511E-09
         4   8 -1.154965E-01 -1.154965E-01  9.898474E+02  4.963028E-09 -4.930653E-09 -4.938605E-09
         5   1 -1.154964E-01 -1.154964E-01  9.898474E+02 -8.884785E-11 -1.118567E-08 -1.117858E-08
         5   2 -1.154964E-01 -1.154964E-01  9.898474E+02  3.926183E-10 -1.161893E-08  4.928482E-09
         5   3 -1.154964E-01 -1.154964E-01  9.898474E+02  3.889812E-10  4.925782E-09 -1.160660E-08
         5   4 -1.154964E-01 -1.154964E-01  9.898474E+02  1.551903E-09  5.578524E-09  5.579942E-09
         5   5 -1.154964E-01 -1.154964E-01  9.898474E+02 -7.450294E-09 -1.573461E-08 -1.573264E-08
         5   6 -1.154965E-01 -1.154965E-01  9.898474E+02 -7.817587E-09  1.196456E-08 -4.444461E-09
         5   7 -1.154965E-01 -1.154965E-01  9.898474E+02 -7.817676E-09 -4.444596E-09  1.197768E-08
         5   8 -1.154964E-01 -1.154964E-01  9.898474E+02 -9.107975E-09  1.186450E-08  1.186896E-08
         6   1 -1.154964E-01 -1.154964E-01  9.898474E+02 -3.871376E-10  1.160789E-08  4.925228E-09
         6   2 -1.154964E-01 -1.154964E-01  9.898474E+02  8.869237E-11  1.118326E-08 -1.118920E-08
         6   3 -1.154964E-01 -1.154964E-01  9.898474E+02 -1.550283E-09 -5.578436E-09  5.577806E-09
         6   4 -1.154964E-01 -1.154964E-01  9.898474E+02 -3.925546E-10 -4.926985E-09 -1.161756E-08
         6   5 -1.154965E-01 -1.154965E-01  9.898474E+02  7.815702E-09 -1.197384E-08 -4.445146E-09
         6   6 -1.154964E-01 -1.154964E-01  9.898474E+02  7.450772E-09  1.573267E-08 -1.573389E-08
         6   7 -1.154964E-01 -1.154964E-01  9.898474E+02  9.108702E-09 -1.186640E-08  1.186434E-08
         6   8 -1.154965E-01 -1.154965E-01  9.898474E+02  7.816472E-09  4.444194E-09  1.196382E-08
         7   1 -1.154964E-01 -1.154964E-01  9.898474E+02 -3.890013E-10  4.925995E-09  1.161848E-08
         7   2 -1.154964E-01 -1.154964E-01  9.898474E+02 -1.550840E-09  5.581612E-09 -5.578493E-09
         7   3 -1.154964E-01 -1.154964E-01  9.898474E+02  8.883025E-11 -1.118073E-08  1.118839E-08
         7   4 -1.154964E-01 -1.154964E-01  9.898474E+02 -3.909550E-10 -1.160358E-08 -4.925003E-09
         7   5 -1.154965E-01 -1.154965E-01  9.898474E+02  7.815525E-09 -4.444059E-09 -1.196085E-08
         7   6 -1.154964E-01 -1.154964E-01  9.898474E+02  9.108298E-09  1.186669E-08 -1.186391E-08
         7   7 -1.154964E-01 -1.154964E-01  9.898474E+02  7.451113E-09 -1.572883E-08  1.573657E-08
         7   8 -1.154965E-01 -1.154965E-01  9.898474E+02  7.816701E-09  1.197747E-08  4.444980E-09
         8   1 -1.154964E-01 -1.154964E-01  9.898474E+02  1.550319E-09 -5.576050E-09 -5.579989E-09
         8   2 -1.154964E-01 -1.154964E-01  9.898474E+02  3.902895E-10 -4.925498E-09  1.160915E-08
         8   3 -1.154964E-01 -1.154964E-01  9.898474E+02  3.893394E-10  1.162298E-08 -4.925423E-09
         8   4 -1.154964E-01 -1.154964E-01  9.898474E+02 -8.846180E-11  1.118913E-08  1.118147E-08
         8   5 -1.154964E-01 -1.154964E-01  9.898474E+02 -9.107613E-09 -1.186375E-08 -1.186626E-08
         8   6 -1.154965E-01 -1.154965E-01  9.898474E+02 -7.816771E-09  4.446002E-09 -1.197679E-08
         8   7 -1.154965E-01 -1.154965E-01  9.898474E+02 -7.817465E-09 -1.196148E-08  4.445522E-09
         8   8 -1.154964E-01 -1.154964E-01  9.898474E+02 -7.450369E-09  1.573819E-08  1.573200E-08
         9   1 -1.154965E-01 -1.154965E-01  9.898474E+02 -5.253279E-09  3.235182E-08  3.235874E-08
         9   2 -1.154964E-01 -1.154964E-01  9.898474E+02 -4.111247E-09  2.818600E-08 -1.629412E-08
         9   3 -1.154964E-01 -1.154964E-01  9.898474E+02 -4.111224E-09 -1.629529E-08  2.819540E-08
         9   4 -1.154965E-01 -1.154965E-01  9.898474E+02 -4.198171E-09 -1.569525E-08 -1.569497E-08
         9   5 -1.154966E-01 -1.154966E-01  9.898474E+02  2.952501E-08  3.948034E-08  3.948507E-08
         9   6 -1.154963E-01 -1.154963E-01  9.898474E+02  2.779828E-08 -4.846237E-08  3.114810E-08
         9   7 -1.154963E-01 -1.154963E-01  9.898474E+02  2.779786E-08  3.114737E-08 -4.845087E-08
         9   8 -1.154965E-01 -1.154965E-01  9.898474E+02  2.561211E-08 -3.331540E-08 -3.331514E-08
        10   1 -1.154964E-01 -1.154964E-01  9.898474E+02  4.110684E-09 -2.819336E-08 -1.629533E-08
        10   2 -1.154965E-01 -1.154965E-01  9.898474E+02  5.255511E-09 -3.235451E-08  3.234933E-08
        10   3 -1.154965E-01 -1.154965E-01  9.898474E+02  4.199232E-09  1.569761E-08 -1.569677E-08
        10   4 -1.154964E-01 -1.154964E-01  9.898474E+02  4.110497E-09  1.629586E-08  2.818509E-08
        10   5 -1.154963E-01 -1.154963E-01  9.898474E+02 -2.779804E-08  4.845351E-08  3.114718E-08
        10   6 -1.154966E-01 -1.154966E-01  9.898474E+02 -2.952559E-08 -3.948302E-08  3.948124E-08
        10   7 -1.154965E-01 -1.154965E-01  9.898474E+02 -2.561076E-08  3.331575E-08 -3.331592E-08
        10   8 -1.154963E-01 -1.154963E-01  9.898474E+02 -2.779834E-08 -3.114486E-08 -4.846443E-08
        11   1 -1.154964E-01 -1.154964E-01  9.898474E+02  4.110481E-09 -1.629556E-08 -2.818380E-08
        11   2 -1.154965E-01 -1.154965E-01  9.898474E+02  4.199333E-09 -1.569482E-08  1.569856E-08
        11   3 -1.154965E-01 -1.154965E-01  9.898474E+02  5.254820E-09  3.235792E-08 -3.234811E-08
        11   4 -1.154964E-01 -1.154964E-01  9.898474E+02  4.110324E-09  2.819653E-08  1.629586E-08
        11   5 -1.154963E-01 -1.154963E-01  9.898474E+02 -2.779783E-08  3.114884E-08  4.846466E-08
        11   6 -1.154965E-01 -1.154965E-01  9.898474E+02 -2.561116E-08 -3.331463E-08  3.331737E-08
        11   7 -1.154966E-01 -1.154966E-01  9.898474E+02 -2.952497E-08  3.948527E-08 -3.947955E-08
        11   8 -1.154963E-01 -1.154963E-01  9.898474E+02 -2.779807E-08 -4.845111E-08 -3.114576E-08
        12   1 -1.154965E-01 -1.154965E-01  9.898474E+02 -4.198751E-09  1.569878E-08  1.569724E-08
        12   2 -1.154964E-01 -1.154964E-01  9.898474E+02 -4.112316E-09  1.629698E-08 -2.819239E-08
        12   3 -1.154964E-01 -1.154964E-01  9.898474E+02 -4.111454E-09 -2.818063E-08  1.629558E-08
        12   4 -1.154965E-01 -1.154965E-01  9.898474E+02 -5.253705E-09 -3.234847E-08 -3.235659E-08
        12   5 -1.154965E-01 -1.154965E-01  9.898474E+02  2.561160E-08  3.331818E-08  3.331420E-08
        12   6 -1.154963E-01 -1.154963E-01  9.898474E+02  2.779843E-08 -3.114681E-08  4.845170E-08
        12   7 -1.154963E-01 -1.154963E-01  9.898474E+02  2.779824E-08  4.846690E-08 -3.114524E-08
        12   8 -1.154966E-01 -1.154966E-01  9.898474E+02  2.952553E-08 -3.947751E-08 -3.948293E-08
        13   1 -1.154963E-01 -1.154963E-01  9.898474E+02 -9.145316E-09 -5.971563E-08 -5.971095E-08
        13   2 -1.154964E-01 -1.154964E-01  9.898474E+02 -3.321170E-09 -6.152675E-08  2.106767E-08
        13   3 -1.154964E-01 -1.154964E-01  9.898474E+02 -3.321900E-09  2.106608E-08 -6.151534E-08
        13   4 -1.154964E-01 -1.154964E-01  9.898474E+02  4.189841E-09  3.311338E-08  3.311718E-08
        13   5 -1.154960E-01 -1.154960E-01  9.898474E+02 -1.884047E-08 -1.812974E-07 -1.812958E-07
        13   6 -1.154967E-01 -1.154968E-01  9.898474E+02 -3.736851E-08  1.616584E-07 -7.215303E-08
        13   7 -1.154968E-01 -1.154967E-01  9.898474E+02 -3.736853E-08 -7.215134E-08  1.616670E-07
        13   8 -1.154962E-01 -1.154962E-01  9.898474E+02 -4.911280E-08  1.263542E-07  1.263590E-07
        14   1 -1.154964E-01 -1.154964E-01  9.898474E+02  3.321686E-09  6.152042E-08  2.106767E-08
        14   2 -1.154963E-01 -1.154963E-01  9.898474E+02  9.144752E-09  5.971169E-08 -5.971619E-08
        14   3 -1.154964E-01 -1.154964E-01  9.898474E+02 -4.190739E-09 -3.311387E-08  3.311383E-08
        14   4 -1.154964E-01 -1.154964E-01  9.898474E+02  3.321371E-09 -2.106629E-08 -6.152722E-08
        14   5 -1.154967E-01 -1.154968E-01  9.898474E+02  3.736906E-08 -1.616657E-07 -7.215253E-08
        14   6 -1.154960E-01 -1.154960E-01  9.898474E+02  1.883938E-08  1.812970E-07 -1.812985E-07
        14   7 -1.154962E-01 -1.154962E-01  9.898474E+02  4.911163E-08 -1.263573E-07  1.263561E-07
        14   8 -1.154968E-01 -1.154967E-01  9.898474E+02  3.736992E-08  7.215387E-08  1.616592E-07
        15   1 -1.154964E-01 -1.154964E-01  9.898474E+02  3.320789E-09  2.106737E-08  6.152756E-08
        15   2 -1.154964E-01 -1.154964E-01  9.898474E+02 -4.191042E-09  3.311501E-08 -3.311242E-08
        15   3 -1.154963E-01 -1.154963E-01  9.898474E+02  9.145386E-09 -5.971036E-08  5.971596E-08
        15   4 -1.154964E-01 -1.154964E-01  9.898474E+02  3.322672E-09 -6.151709E-08 -2.106539E-08
        15   5 -1.154968E-01 -1.154967E-01  9.898474E+02  3.736898E-08 -7.215343E-08 -1.616574E-07
        15   6 -1.154962E-01 -1.154962E-01  9.898474E+02  4.911099E-08  1.263579E-07 -1.263578E-07
        15   7 -1.154960E-01 -1.154960E-01  9.898474E+02  1.883952E-08 -1.812964E-07  1.813003E-07
        15   8 -1.154967E-01 -1.154968E-01  9.898474E+02  3.736967E-08  1.616680E-07  7.215483E-08
        16   1 -1.154964E-01 -1.154964E-01  9.898474E+02  4.190526E-09 -3.311182E-08 -3.311371E-08
        16   2 -1.154964E-01 -1.154964E-01  9.898474E+02 -3.321204E-09 -2.106626E-08  6.151768E-08
        16   3 -1.154964E-01 -1.154964E-01  9.898474E+02 -3.321546E-09  6.152960E-08 -2.106572E-08
        16   4 -1.154963E-01 -1.154963E-01  9.898474E+02 -9.145515E-09  5.971714E-08  5.971088E-08
        16   5 -1.154962E-01 -1.154962E-01  9.898474E+02 -4.911204E-08 -1.263576E-07 -1.263595E-07
        16   6 -1.154968E-01 -1.154967E-01  9.898474E+02 -3.736787E-08  7.215418E-08 -1.616671E-07
        16   7 -1.154967E-01 -1.154968E-01  9.898474E+02 -3.736830E-08 -1.616570E-07  7.215414E-08
        16   8 -1.154960E-01 -1.154960E-01  9.898474E+02 -1.884054E-08  1.813026E-07  1.812968E-07
        17   1 -1.154968E-01 -1.154968E-01  9.898474E+02 -6.096256E-08  2.116502E-07  2.116548E-07
        17   2 -1.154964E-01 -1.154964E-01  9.898474E+02 -4.469313E-08  1.486527E-07 -1.019721E-07
        17   3 -1.154964E-01 -1.154964E-01  9.898474E+02 -4.469265E-08 -1.019752E-07  1.486623E-07
        17   4 -1.154966E-01 -1.154966E-01  9.898474E+02 -3.196455E-08 -1.115810E-07 -1.115773E-07
        17   5 -1.154973E-01 -1.154973E-01  9.898474E+02  1.843092E-07  4.717846E-07  4.717894E-07
        17   6 -1.154958E-01 -1.154957E-01  9.898474E+02  1.916473E-07 -5.868494E-07  3.810964E-07
        17   7 -1.154957E-01 -1.154958E-01  9.898474E+02  1.916477E-07  3.810961E-07 -5.868423E-07
        17   8 -1.154971E-01 -1.154971E-01  9.898474E+02  1.621409E-07 -3.524428E-07 -3.524400E-07
        18   1 -1.154964E-01 -1.154964E-01  9.898474E+02  4.469494E-08 -1.486614E-07 -1.019780E-07
        18   2 -1.154968E-01 -1.154968E-01  9.898474E+02  6.096120E-08 -2.116541E-07  2.116506E-07
        18   3 -1.154966E-01 -1.154966E-01  9.898474E+02  3.196480E-08  1.115769E-07 -1.115767E-07
        18   4 -1.154964E-01 -1.154964E-01  9.898474E+02  4.469323E-08  1.019752E-07  1.486547E-07
        18   5 -1.154958E-01 -1.154957E-01  9.898474E+02 -1.916484E-07  5.868439E-07  3.810949E-07
        18   6 -1.154973E-01 -1.154973E-01  9.898474E+02 -1.843090E-07 -4.717874E-07  4.717841E-07
        18   7 -1.154971E-01 -1.154971E-01  9.898474E+02 -1.621413E-07  3.524421E-07 -3.524438E-07
        18   8 -1.154957E-01 -1.154958E-01  9.898474E+02 -1.916490E-07 -3.810926E-07 -5.868472E-07
        19   1 -1.154964E-01 -1.154964E-01  9.898474E+02  4.469500E-08 -1.019732E-07 -1.486533E-07
        19   2 -1.154966E-01 -1.154966E-01  9.898474E+02  3.196546E-08 -1.115790E-07  1.115803E-07
        19   3 -1.154968E-01 -1.154968E-01  9.898474E+02  6.096120E-08  2.116523E-07 -2.116466E-07
        19   4 -1.154964E-01 -1.154964E-01  9.898474E+02  4.469378E-08  1.486605E-07  1.019744E-07
        19   5 -1.154957E-01 -1.154958E-01  9.898474E+02 -1.916481E-07  3.810939E-07  5.868504E-07
        19   6 -1.154971E-01 -1.154971E-01  9.898474E+02 -1.621403E-07 -3.524439E-07  3.524438E-07
        19   7 -1.154973E-01 -1.154973E-01  9.898474E+02 -1.843087E-07  4.717894E-07 -4.717849E-07
        19   8 -1.154958E-01 -1.154957E-01  9.898474E+02 -1.916484E-07 -5.868436E-07 -3.810947E-07
        20   1 -1.154966E-01 -1.154966E-01  9.898474E+02 -3.196603E-08  1.115800E-07  1.115775E-07
        20   2 -1.154964E-01 -1.154964E-01  9.898474E+02 -4.469371E-08  1.019765E-07 -1.486618E-07
        20   3 -1.154964E-01 -1.154964E-01  9.898474E+02 -4.469262E-08 -1.486544E-07  1.019720E-07
        20   4 -1.154968E-01 -1.154968E-01  9.898474E+02 -6.096179E-08 -2.116489E-07 -2.116533E-07
        20   5 -1.154971E-01 -1.154971E-01  9.898474E+02  1.621404E-07  3.524429E-07  3.524413E-07
        20   6 -1.154957E-01 -1.154958E-01  9.898474E+02  1.916470E-07 -3.810968E-07  5.868464E-07
        20   7 -1.154958E-01 -1.154957E-01  9.898474E+02  1.916480E-07  5.868516E-07 -3.810966E-07
        20   8 -1.154973E-01 -1.154973E-01  9.898474E+02  1.843097E-07 -4.717845E-07 -4.717881E-07
        21   1 -1.154957E-01 -1.154957E-01  9.898474E+02 -8.970305E-08 -3.126755E-07 -3.126695E-07