
 displacements (vx,vy,vz) for set NALL and time  0.1000000E+01

         1  0.000000E+00  0.000000E+00  0.000000E+00
         2  0.000000E+00  0.000000E+00  0.000000E+00
         3  0.000000E+00  0.000000E+00  0.000000E+00
         4  0.000000E+00  0.000000E+00  0.000000E+00
         5  2.500000E-01 -2.500000E-01  7.868792E-14
         6  2.500000E-01  2.500000E-01  1.382165E-13
         7 -2.500000E-01  2.500000E-01 -7.392264E-14
         8 -2.500000E-01 -2.500000E-01 -1.372700E-13
         9  0.000000E+00  0.000000E+00  0.000000E+00
        10  0.000000E+00  0.000000E+00  0.000000E+00
        11  0.000000E+00  0.000000E+00  0.000000E+00
        12  0.000000E+00  0.000000E+00  0.000000E+00
        13  0.000000E+00  0.000000E+00  0.000000E+00
        14  0.000000E+00  0.000000E+00  0.000000E+00
        15  0.000000E+00  0.000000E+00  0.000000E+00
        16  0.000000E+00  0.000000E+00  0.000000E+00
        17  0.000000E+00  0.000000E+00  0.000000E+00
        18  0.000000E+00  0.000000E+00  0.000000E+00
        19  0.000000E+00  0.000000E+00  0.000000E+00
        20  0.000000E+00  0.000000E+00  0.000000E+00
        21  2.302944E-01 -1.153494E-01 -5.637465E-03
        22  2.159580E-01  1.207102E-12  1.072024E-13
        23  2.302944E-01  1.153494E-01  5.637465E-03
        24  1.153494E-01  2.302944E-01 -5.637465E-03
        25 -3.657751E-13  2.159580E-01  3.226954E-14
        26 -1.153494E-01  2.302944E-01  5.637465E-03
        27 -2.302944E-01  1.153494E-01 -5.637465E-03
        28 -2.159580E-01  1.207727E-12 -1.061215E-13
        29 -2.302944E-01 -1.153494E-01  5.637465E-03
        30 -1.153494E-01 -2.302944E-01 -5.637465E-03
        31 -3.658393E-13 -2.159580E-01 -3.105199E-14
        32  1.153494E-01 -2.302944E-01  5.637465E-03
        33  1.238758E-02  1.238758E-02  1.802919E-14
        34  2.670895E-02  2.670895E-02  3.594312E-14
        35  4.138536E-02  4.138536E-02  5.260083E-14
        36  5.553606E-02  5.553606E-02  6.782101E-14
        37  6.955358E-02  6.955358E-02  8.143443E-14
        38  8.377717E-02  8.377717E-02  9.353144E-14
        39  9.792656E-02  9.792656E-02  1.041210E-13
        40  1.123123E-01  1.123123E-01  1.131013E-13
        41  1.261272E-01  1.261272E-01  1.201878E-13
        42  1.406631E-01  1.406631E-01  1.259979E-13
        43  1.545693E-01  1.545693E-01  1.304664E-13
        44  1.708834E-01  1.708834E-01  1.339965E-13
        45  1.812426E-01  1.812426E-01  1.364117E-13
        46  1.972688E-01  1.972688E-01  1.378392E-13
        47  2.126854E-01  2.126854E-01  1.384565E-13
        48  2.126854E-01 -2.126854E-01  7.649384E-14
        49  1.972688E-01 -1.972688E-01  7.529350E-14
        50  1.812426E-01 -1.812426E-01  7.446908E-14
        51  1.708834E-01 -1.708834E-01  7.347248E-14
        52  1.545693E-01 -1.545693E-01  7.157555E-14
        53  1.406631E-01 -1.406631E-01  6.878158E-14
        54  1.261272E-01 -1.261272E-01  6.488473E-14
        55  1.123123E-01 -1.123123E-01  6.019187E-14
        56  9.792656E-02 -9.792656E-02  5.484458E-14
        57  8.377717E-02 -8.377717E-02  4.870554E-14
        58  6.955358E-02 -6.955358E-02  4.192512E-14
        59  5.553606E-02 -5.553606E-02  3.466807E-14
        60  4.138536E-02 -4.138536E-02  2.680033E-14
        61  2.670895E-02 -2.670895E-02  1.829050E-14
        62  1.238758E-02 -1.238758E-02  9.168031E-15
        63 -1.238758E-02  1.238758E-02 -9.095781E-15
        64 -2.670895E-02  2.670895E-02 -1.818275E-14
        65 -4.138536E-02  4.138536E-02 -2.664371E-14
        66 -5.553606E-02  5.553606E-02 -3.437349E-14
        67 -6.955358E-02  6.955358E-02 -4.156419E-14
        68 -8.377717E-02  8.377717E-02 -4.816055E-14
        69 -9.792656E-02  9.792656E-02 -5.433845E-14
        70 -1.123123E-01  1.123123E-01 -5.956000E-14
        71 -1.261272E-01  1.261272E-01 -6.405474E-14
        72 -1.406631E-01  1.406631E-01 -6.776524E-14
        73 -1.545693E-01  1.545693E-01 -7.053765E-14
        74 -1.708834E-01  1.708834E-01 -7.237960E-14
        75 -1.812426E-01  1.812426E-01 -7.340661E-14
        76 -1.972688E-01  1.972688E-01 -7.389922E-14
        77 -2.126854E-01  2.126854E-01 -7.417249E-14
        78 -1.238758E-02 -1.238758E-02 -1.796496E-14
        79 -2.670895E-02 -2.670895E-02 -3.582227E-14
        80 -4.138536E-02 -4.138536E-02 -5.237421E-14
        81 -5.553606E-02 -5.553606E-02 -6.751847E-14
        82 -6.955358E-02 -6.955358E-02 -8.105799E-14
        83 -8.377717E-02 -8.377717E-02 -9.310890E-14
        84 -9.792656E-02 -9.792656E-02 -1.035587E-13
        85 -1.123123E-01 -1.123123E-01 -1.123112E-13
        86 -1.261272E-01 -1.261272E-01 -1.195461E-13
        87 -1.406631E-01 -1.406631E-01 -1.251922E-13
        88 -1.545693E-01 -1.545693E-01 -1.294329E-13
        89 -1.708834E-01 -1.708834E-01 -1.329686E-13
        90 -1.812426E-01 -1.812426E-01 -1.352942E-13
        91 -1.972688E-01 -1.972688E-01 -1.366772E-13
        92 -2.126854E-01 -2.126854E-01 -1.371707E-13
        93  0.000000E+00  0.000000E+00  0.000000E+00
        94  0.000000E+00  0.000000E+00  0.000000E+00
        95  0.000000E+00  0.000000E+00  0.000000E+00
        96  0.000000E+00  0.000000E+00  0.000000E+00
        97  0.000000E+00  0.000000E+00  0.000000E+00
        98  1.108600E-01  1.207379E-12  5.405843E-14
        99 -3.660545E-13 -1.108600E-01 -1.517146E-14
       100 -3.662139E-13  1.207420E-12  6.252962E-16
       101 -3.659669E-13  1.108600E-01  1.648899E-14
       102 -1.108600E-01  1.207500E-12 -5.267772E-14
       103  1.302988E-02  9.965176E-15  1.321278E-14
       104  2.673077E-02 -1.339301E-02 -2.670648E-03
       105  2.679662E-02  3.023029E-14  2.751882E-14
       106  2.673077E-02  1.339301E-02  2.670648E-03
       107  4.122274E-02  6.514764E-14  3.973865E-14
       108  5.552544E-02 -2.774705E-02 -1.988466E-03
       109  5.549240E-02  1.109348E-13  5.137505E-14
       110  5.552544E-02  2.774705E-02  1.988466E-03
       111  6.961618E-02  1.684739E-13  6.173962E-14
       112  8.373771E-02 -4.190438E-02 -2.157959E-03
       113  8.370339E-02  2.353582E-13  7.123600E-14
       114  8.373771E-02  4.190438E-02  2.157959E-03
       115  9.797252E-02  3.115959E-13  7.952337E-14
       116  1.121381E-01 -5.611840E-02 -2.131731E-03
       117  1.119791E-01  3.952789E-13  8.668760E-14
       118  1.121381E-01  5.611840E-02  2.131731E-03
       119  1.263959E-01  4.856163E-13  9.268146E-14
       120  1.403892E-01 -7.047734E-02 -2.082595E-03
       121  1.400426E-01  5.810535E-13  9.731252E-14
       122  1.403892E-01  7.047734E-02  2.082595E-03
       123  1.549213E-01  6.808203E-13  1.011468E-13
       124  1.691141E-01 -8.485618E-02 -2.350421E-03
       125  1.676599E-01  7.833622E-13  1.037488E-13
       126  1.691141E-01  8.485618E-02  2.350421E-03
       127  1.840029E-01  8.883831E-13  1.054971E-13
       128  1.961103E-01 -1.010195E-01 -1.341894E-03
       129  1.936704E-01  9.937217E-13  1.065675E-13
       130  1.961103E-01  1.010195E-01  1.341894E-03
       131  2.136154E-01  1.101075E-12  1.072064E-13
       132 -3.275266E-15  1.302988E-02  4.332553E-15
       133  1.339301E-02  2.673077E-02 -2.670648E-03
       134 -9.892676E-15  2.679662E-02  9.032380E-15
       135 -1.339301E-02  2.673077E-02  2.670648E-03
       136 -2.126771E-14  4.122274E-02  1.297676E-14
       137  2.774705E-02  5.552544E-02 -1.988466E-03
       138 -3.621463E-14  5.549240E-02  1.676762E-14
       139 -2.774705E-02  5.552544E-02  1.988466E-03
       140 -5.482878E-14  6.961618E-02  1.998494E-14
       141  4.190438E-02  8.373771E-02 -2.157959E-03
       142 -7.651576E-14  8.370339E-02  2.273730E-14
       143 -4.190438E-02  8.373771E-02  2.157959E-03
       144 -1.002447E-13  9.797252E-02  2.488836E-14
       145  5.611840E-02  1.121381E-01 -2.131731E-03
       146 -1.263744E-13  1.119791E-01  2.674460E-14
       147 -5.611840E-02  1.121381E-01  2.131731E-03
       148 -1.534507E-13  1.263959E-01  2.815882E-14
       149  7.047734E-02  1.403892E-01 -2.082595E-03
       150 -1.820840E-13  1.400426E-01  2.927100E-14
       151 -7.047734E-02  1.403892E-01  2.082595E-03
       152 -2.110579E-13  1.549213E-01  2.997689E-14
       153  8.485618E-02  1.691141E-01 -2.350421E-03
       154 -2.413488E-13  1.676599E-01  3.090241E-14
       155 -8.485618E-02  1.691141E-01  2.350421E-03
       156 -2.717548E-13  1.840029E-01  3.152110E-14
       157  1.010195E-01  1.961103E-01 -1.341894E-03
       158 -3.031603E-13  1.936704E-01  3.197442E-14
       159 -1.010195E-01  1.961103E-01  1.341894E-03
       160 -3.343519E-13  2.136154E-01  3.215855E-14
       161 -1.302988E-02  9.928269E-15 -1.315141E-14
       162 -2.673077E-02  1.339301E-02 -2.670648E-03
       163 -2.679662E-02  3.026964E-14 -2.735095E-14
       164 -2.673077E-02 -1.339301E-02  2.670648E-03
       165 -4.122274E-02  6.507193E-14 -3.951598E-14
       166 -5.552544E-02  2.774705E-02 -1.988466E-03
       167 -5.549240E-02  1.109895E-13 -5.109805E-14
       168 -5.552544E-02 -2.774705E-02  1.988466E-03
       169 -6.961618E-02  1.683671E-13 -6.131699E-14
       170 -8.373771E-02  4.190438E-02 -2.157959E-03
       171 -8.370339E-02  2.355132E-13 -7.082311E-14
       172 -8.373771E-02 -4.190438E-02  2.157959E-03
       173 -9.797252E-02  3.114984E-13 -7.892300E-14
       174 -1.121381E-01  5.611840E-02 -2.131731E-03
       175 -1.119791E-01  3.953192E-13 -8.602242E-14
       176 -1.121381E-01 -5.611840E-02  2.131731E-03
       177 -1.263959E-01  4.855153E-13 -9.184139E-14
       178 -1.403892E-01  7.047734E-02 -2.082595E-03
       179 -1.400426E-01  5.810283E-13 -9.650049E-14
       180 -1.403892E-01 -7.047734E-02  2.082595E-03
       181 -1.549213E-01  6.806353E-13 -1.001705E-13
       182 -1.691141E-01  8.485618E-02 -2.350421E-03
       183 -1.676599E-01  7.838105E-13 -1.026947E-13
       184 -1.691141E-01 -8.485618E-02  2.350421E-03
       185 -1.840029E-01  8.881060E-13 -1.043679E-13
       186 -1.961103E-01  1.010195E-01 -1.341894E-03
       187 -1.936704E-01  9.946981E-13 -1.052871E-13
       188 -1.961103E-01 -1.010195E-01  1.341894E-03
       189 -2.136154E-01  1.100548E-12 -1.058028E-13
       190 -3.252290E-15 -1.302988E-02 -4.284147E-15
       191 -1.339301E-02 -2.673077E-02 -2.670648E-03
       192 -9.878952E-15 -2.679662E-02 -8.877598E-15
       193  1.339301E-02 -2.673077E-02  2.670648E-03
       194 -2.121782E-14 -4.122274E-02 -1.277635E-14
       195 -2.774705E-02 -5.552544E-02 -1.988466E-03
       196 -3.614036E-14 -5.549240E-02 -1.644995E-14
       197  2.774705E-02 -5.552544E-02  1.988466E-03
       198 -5.481698E-14 -6.961618E-02 -1.962335E-14
       199 -4.190438E-02 -8.373771E-02 -2.157959E-03
       200 -7.636628E-14 -8.370339E-02 -2.224426E-14
       201  4.190438E-02 -8.373771E-02  2.157959E-03
       202 -1.003338E-13 -9.797252E-02 -2.439433E-14
       203 -5.611840E-02 -1.121381E-01 -2.131731E-03
       204 -1.263707E-13 -1.119791E-01 -2.607563E-14
       205  5.611840E-02 -1.121381E-01  2.131731E-03
       206 -1.535248E-13 -1.263959E-01 -2.737792E-14
       207 -7.047734E-02 -1.403892E-01 -2.082595E-03
       208 -1.816572E-13 -1.400426E-01 -2.824609E-14
       209  7.047734E-02 -1.403892E-01  2.082595E-03
       210 -2.110765E-13 -1.549213E-01 -2.907798E-14
       211 -8.485618E-02 -1.691141E-01 -2.350421E-03
       212 -2.410198E-13 -1.676599E-01 -2.972053E-14
       213  8.485618E-02 -1.691141E-01  2.350421E-03
       214 -2.718033E-13 -1.840029E-01 -3.034161E-14
       215 -1.010195E-01 -1.961103E-01 -1.341894E-03
       216 -3.028108E-13 -1.936704E-01 -3.070114E-14
       217  1.010195E-01 -1.961103E-01  1.341894E-03
       218 -3.343092E-13 -2.136154E-01 -3.106564E-14
       219 -2.355104E-15  7.154941E-15  3.241776E-17
       220  1.340476E-02  2.905414E-14  1.361731E-14
       221 -9.503249E-15 -1.340476E-02 -4.354156E-15
       222 -9.585420E-15  2.919515E-14  6.135229E-17
       223 -9.527820E-15  1.340476E-02  4.491990E-15
       224 -1.340476E-02  2.908025E-14 -1.348594E-14
       225 -2.060347E-14  6.300082E-14  1.037860E-16
       226  2.774309E-02  1.099294E-13  2.562145E-14
       227 -3.586404E-14 -2.774309E-02 -8.084612E-15
       228 -3.578333E-14  1.096705E-13  1.445616E-16
       229 -3.588991E-14  2.774309E-02  8.395670E-15
       230 -2.774309E-02  1.099514E-13 -2.534894E-14
       231 -5.438278E-14  1.668596E-13  1.908738E-16
       232  4.185084E-02  2.344062E-13  3.557482E-14
       233 -7.612693E-14 -4.185084E-02 -1.094483E-14
       234 -7.613888E-14  2.341469E-13  2.174910E-16
       235 -7.622883E-14  4.185084E-02  1.141592E-14
       236 -4.185084E-02  2.344871E-13 -3.516195E-14
       237 -9.996344E-14  3.104143E-13  2.714429E-16
       238  5.599740E-02  3.945519E-13  4.332775E-14
       239 -1.261476E-13 -5.599740E-02 -1.281887E-14
       240 -1.259976E-13  3.942716E-13  3.161534E-16
       241 -1.261181E-13  5.599740E-02  1.349581E-14
       242 -5.599740E-02  3.945578E-13 -4.270620E-14
       243 -1.532819E-13  4.848344E-13  3.777360E-16
       244  6.998121E-02  5.805640E-13  4.872685E-14
       245 -1.817192E-13 -6.998121E-02 -1.389662E-14
       246 -1.818285E-13  5.804366E-13  4.348019E-16
       247 -1.819259E-13  6.998121E-02  1.480165E-14
       248 -6.998121E-02  5.805749E-13 -4.790330E-14
       249 -2.109085E-13  6.802579E-13  5.379136E-16
       250  8.398813E-02  7.830637E-13  5.199736E-14
       251 -2.410136E-13 -8.398813E-02 -1.459028E-14
       252 -2.410650E-13  7.829568E-13  5.056719E-16
       253 -2.411890E-13  8.398813E-02  1.568884E-14
       254 -8.398813E-02  7.833083E-13 -5.099412E-14
       255 -2.716000E-13  8.879896E-13  6.596133E-16
       256  9.612696E-02  9.938378E-13  5.344596E-14
       257 -3.029903E-13 -9.612696E-02 -1.504092E-14
       258 -3.033441E-13  9.942379E-13  5.527263E-16
       259 -3.033051E-13  9.612696E-02  1.622400E-14
       260 -9.612696E-02  9.945489E-13 -5.232880E-14
       261 -3.344742E-13  1.100484E-12  5.837818E-16

 forces (fx,fy,fz) for set NALL and time  0.1000000E+01

         1  1.195078E+01 -1.195078E+01  1.705696E-12
         2  1.195078E+01  1.195078E+01  3.172573E-12
         3 -1.195078E+01  1.195078E+01 -1.404539E-12
         4 -1.195078E+01 -1.195078E+01 -2.831069E-12
         5  1.621439E+02 -1.621439E+02  9.053830E-13
         6  1.621439E+02  1.621439E+02  1.600720E-12
         7 -1.621439E+02  1.621439E+02  9.983530E-13
         8 -1.621439E+02 -1.621439E+02 -4.456435E-13
         9 -1.004130E+02  8.219370E+01  9.580902E+01
        10  1.875290E+01 -1.234159E-10  1.966782E-11
        11 -1.004130E+02 -8.219370E+01 -9.580902E+01
        12 -8.219370E+01 -1.004130E+02  9.580902E+01
        13  4.091483E-11  1.875290E+01  6.403122E-12
        14  8.219370E+01 -1.004130E+02 -9.580902E+01
        15  1.004130E+02 -8.219370E+01  9.580902E+01
        16 -1.875290E+01 -1.244871E-10 -1.924836E-11
        17  1.004130E+02  8.219370E+01 -9.580902E+01
        18  8.219370E+01  1.004130E+02  9.580902E+01
        19  3.896261E-11 -1.875290E+01 -6.153300E-12
        20 -8.219370E+01  1.004130E+02 -9.580902E+01
        21  6.096834E-11 -8.567258E-12 -2.623517E-13
        22 -4.505324E-11  3.951506E-12  8.475443E-13
        23 -1.552403E-11 -1.348255E-12  1.603162E-12
        24  7.682743E-13  1.042366E-11  2.451372E-12
        25  2.548184E-12  1.006750E-11 -3.218539E-13
        26  3.886669E-12 -1.877609E-11 -1.514590E-14
        27 -2.580336E-11 -1.063682E-11  1.114617E-12
        28 -7.416290E-14  9.004575E-12 -3.024137E-12
        29 -4.124701E-12 -2.537526E-12  6.394885E-14
        30  6.327383E-12 -1.223399E-11 -1.384670E-12
        31  4.887202E-12 -6.692202E-12 -5.257572E-12
        32 -1.242029E-11  3.913647E-12  2.667305E-12
        33 -3.217426E-13  3.552714E-15 -1.092459E-13
        34  2.148282E-13  1.247003E-12 -2.867706E-13
        35 -8.257839E-13  2.135181E-12  3.986811E-13
        36 -5.373479E-14 -6.785683E-13  1.731115E-13
        37 -2.269962E-12  5.151435E-13 -8.174572E-13
        38  4.088618E-12  4.654055E-13 -5.370704E-14
        39 -3.712586E-12 -2.078338E-12  8.795048E-13
        40 -1.566525E-12  1.107736E-11  1.310063E-14
        41 -2.561507E-12  3.566925E-12  1.151995E-12
        42 -7.967293E-12 -1.038458E-11 -1.577849E-12
        43  3.381406E-12  4.551026E-12 -2.704281E-12
        44  7.636558E-12 -6.615153E-12 -2.551070E-12
        45 -2.868816E-12 -4.849454E-12 -2.096434E-12
        46  2.079092E-11  8.967049E-12 -1.238121E-12
        47 -5.186074E-12 -2.664535E-13  1.868727E-12
        48  6.823209E-12  5.189682E-12  1.230485E-11
        49  1.182054E-12  4.556688E-12 -3.023494E-12
        50  2.655653E-12  1.278977E-12  1.849188E-12
        51 -2.228906E-11  9.887424E-12  1.219497E-13
        52  2.820189E-12 -4.283018E-12 -1.673250E-12
        53 -1.181943E-11  1.027756E-11  8.587228E-13
        54 -8.304468E-13  2.169376E-13  1.136642E-12
        55 -3.083311E-12  6.073364E-12 -1.775466E-12
        56 -2.750689E-12  1.685541E-12 -1.323839E-13
        57  6.681766E-12 -2.442713E-12  1.032091E-14
        58 -7.520651E-13 -7.993606E-14  2.006679E-13
        59  7.768008E-12  2.083000E-12 -3.976785E-14
        60  1.125766E-13 -1.059819E-12 -1.609987E-12
        61 -4.840572E-13  4.425349E-13  1.534698E-13
        62  2.440270E-13  1.274536E-13 -5.602566E-14
        63 -2.629008E-13  2.984279E-13  2.157411E-13
        64 -2.344791E-12 -5.044853E-13 -1.297184E-13
        65  1.989520E-12  3.979039E-13  1.519457E-13
        66 -3.371525E-12 -3.939959E-12  1.332949E-13
        67 -2.330580E-12  1.698197E-12  2.757030E-13
        68  4.799716E-12 -4.497736E-12 -1.713948E-13
        69 -9.023893E-13  1.520561E-12 -4.623389E-13
        70  1.047695E-11 -7.567280E-13  9.027905E-13
        71  1.293188E-12  6.323830E-13 -1.867617E-12
        72  2.035705E-12  5.918821E-12  1.491154E-12
        73  2.373213E-12 -1.961098E-12 -1.481872E-12
        74  9.173107E-12 -3.250733E-12 -3.062627E-13
        75 -6.366463E-12  2.600586E-12  1.534434E-12
        76  1.332623E-11  6.981082E-12  3.398585E-13
        77  3.225864E-12 -6.764367E-12 -1.752103E-12
        78  3.268497E-13 -2.087219E-14 -5.773160E-14
        79  5.577760E-13 -1.758371E-12 -1.159073E-13
        80  4.334311E-13 -2.906564E-13 -2.373657E-13
        81  3.964828E-12  1.476375E-12  3.604894E-13
        82  1.207923E-13 -1.811884E-13 -1.332406E-12
        83 -3.932854E-12 -3.621548E-13  3.006068E-13
        84 -8.739676E-13  2.744027E-12 -6.966094E-13
        85 -2.579270E-12  1.454392E-13  8.999745E-13
        86  1.119105E-12 -5.046186E-12 -2.304823E-12
        87 -8.128609E-12 -9.933165E-13 -4.869438E-13
        88 -2.170708E-12  3.869238E-12  6.939560E-12
        89 -9.716672E-12  4.793943E-12 -3.034240E-13
        90 -4.710898E-12  4.444445E-12  2.501110E-12
        91  1.584155E-11  1.076605E-11 -1.426415E-12
        92  1.406875E-12 -1.483258E-13  3.840483E-12
        93 -1.678451E+02  2.156035E-10 -4.033508E-10
        94 -6.759215E-11  1.678451E+02  1.291435E-10
        95  5.948131E-11 -1.852580E-10  1.436824E-12
        96 -7.134116E-11 -1.678451E+02 -1.332579E-10
        97  1.678451E+02  2.155485E-10  3.996545E-10
        98  1.775757E-11 -2.021494E-12 -1.496581E-12
        99 -8.917311E-12 -8.610668E-12  1.003642E-12
       100 -2.018963E-11  8.600232E-12 -2.918954E-12
       101 -7.278622E-12  8.968826E-12 -7.885697E-13
       102  7.241319E-12 -2.680522E-12 -1.968071E-12
       103  1.091349E-13  1.669775E-13  1.197931E-13
       104  2.531531E-12  1.543654E-12 -3.926258E-13
       105  4.009015E-13  1.119105E-13  4.328482E-13
       106 -4.337752E-12  1.552536E-12 -3.511080E-14
       107 -7.074896E-13  1.064038E-12 -8.831824E-14
       108 -5.957235E-12  3.684386E-12 -8.303125E-13
       109  9.113488E-12 -4.007461E-12 -2.582101E-13
       110 -4.301004E-13  1.953993E-14 -4.699990E-13
       111  1.440514E-13  1.024070E-12  1.255648E-12
       112 -5.561773E-12  2.269296E-13  2.898445E-13
       113  2.930933E-12 -3.684164E-12  6.794634E-13
       114 -1.812051E-12 -1.259437E-12 -1.599082E-12
       115  1.159456E-11 -1.258549E-12  1.953028E-12
       116  1.320055E-11 -7.112089E-13  2.818747E-12
       117  2.886302E-12  6.446399E-12 -8.700818E-13
       118 -1.260669E-11  3.256062E-12 -2.450498E-12
       119 -5.624667E-12  2.211564E-12  2.492992E-12
       120  1.057221E-11  1.586287E-12  1.222530E-12
       121 -2.569517E-11  7.672085E-12 -1.473377E-12
       122 -3.619161E-12  6.357581E-12  3.586020E-14
       123  4.304529E-12  4.480860E-12 -4.916068E-12
       124 -3.413936E-12  4.132250E-12  1.478943E-12
       125  1.922418E-11 -2.878586E-12 -1.793565E-13
       126 -1.165135E-11  3.418599E-12  2.482514E-12
       127 -1.281797E-11  1.506351E-12 -1.260797E-12
       128 -5.772050E-13 -1.897638E-11 -4.208795E-13
       129  1.770828E-11  2.275513E-11 -1.854517E-12
       130 -2.843481E-11  5.618617E-12  3.595346E-12
       131  5.604628E-12 -3.575806E-12  7.407408E-12
       132  1.794120E-13 -1.527667E-13  5.357963E-14
       133  3.808065E-13  5.044853E-12  2.606804E-13
       134  9.876544E-13 -5.005774E-12 -2.022286E-14
       135  7.158718E-13  4.467537E-12  6.373230E-13
       136 -8.384404E-13  9.823253E-13  6.785255E-13
       137  1.776357E-13  1.088551E-11  4.319878E-13
       138  2.255973E-13 -8.398615E-12 -9.912381E-14
       139 -1.417533E-12  8.256507E-12  7.606317E-14
       140  2.019718E-12  1.737277E-12 -1.570877E-13
       141 -1.974865E-12  4.355627E-12 -6.379064E-13
       142  4.614975E-12  2.991385E-12 -6.766704E-13
       143  1.453060E-12  1.240608E-11  1.432828E-12
       144  2.044587E-12 -3.433698E-12  4.353129E-14
       145 -1.342171E-11 -4.689582E-12 -6.804002E-13
       146  4.263256E-14  1.313261E-11 -8.564815E-13
       147  2.959410E-12  4.071410E-12  3.126134E-13
       148 -3.089085E-12  8.961720E-12  1.138029E-12
       149  2.593259E-12 -1.627143E-12  2.766676E-12
       150 -7.975842E-12  8.006040E-12  2.345777E-12
       151 -2.476241E-12 -1.155342E-11  1.709210E-13
       152 -5.638157E-12 -1.119105E-12  3.221255E-13
       153 -5.115908E-13  1.965716E-11 -1.616041E-12
       154 -3.652190E-12 -9.968915E-12 -1.230931E-12
       155  1.175948E-12 -1.334044E-11 -1.701898E-12
       156 -1.989520E-13  2.504663E-12  9.734019E-13
       157 -3.553602E-12  1.573497E-11  3.151257E-12
       158  1.370282E-11  6.899370E-12 -1.320568E-12
       159 -1.023182E-12 -9.141132E-12  1.663605E-12
       160 -3.907985E-13  6.291856E-12  6.346214E-12
       161 -3.499423E-13  1.989520E-13  4.479309E-13
       162  1.529443E-12  2.131628E-13 -2.117756E-13
       163 -1.307399E-12  1.811884E-13  3.603616E-13
       164 -1.321609E-12  1.536549E-13  2.926548E-13
       165 -1.236344E-12 -6.323830E-13  1.971328E-13
       166  3.247180E-12 -1.989520E-12 -9.169203E-13
       167 -2.755129E-12 -1.776357E-12  5.123870E-13
       168  1.406875E-12 -4.549694E-13 -6.643019E-13
       169 -2.218670E-12 -7.531753E-13  1.482490E-12
       170 -1.617728E-11  9.201528E-13 -3.470820E-13
       171  5.414336E-12  5.329071E-13 -7.641560E-13
       172  5.258016E-13  3.362421E-12  4.490852E-14
       173 -2.557954E-13 -7.727152E-13 -1.718615E-12
       174  6.664891E-12 -4.042988E-12 -8.739929E-13
       175  1.172396E-11  2.097877E-12  1.829814E-12
       176 -9.521273E-13 -4.801715E-12 -1.193046E-12
       177 -1.890044E-12  2.771117E-12  2.445218E-13
       178  2.046718E-11 -4.874323E-12  2.513936E-12
       179 -1.915623E-11  2.566836E-12 -1.115899E-12
       180  1.315215E-11  5.730083E-12  2.886580E-14
       181  6.773249E-12  2.460254E-12  2.650929E-12
       182  8.583356E-12  5.247358E-12 -3.962761E-13
       183 -1.423572E-11  2.081890E-12 -1.313658E-13
       184  6.101430E-11 -3.351985E-12 -1.179723E-12
       185  5.027090E-12  6.195933E-12  5.062200E-13
       186 -2.558309E-11  8.242296E-12  8.518100E-13
       187  1.174882E-11  1.081801E-11 -2.482305E-12
       188 -4.940404E-11 -3.342215E-12  1.964651E-12
       189  1.829648E-12 -5.844214E-12 -4.465742E-13
       190  7.105427E-15  2.734479E-13  2.609024E-14
       191  7.815970E-14  1.748934E-12 -3.575196E-13
       192 -1.305622E-12 -1.026290E-12  5.256628E-13
       193 -6.441514E-13 -1.104450E-12  1.287349E-13
       194  9.539036E-13 -5.306866E-14 -7.914225E-13
       195  1.746159E-12  1.209977E-12  1.754430E-13
       196  4.844125E-12 -1.598166E-12  5.471457E-13
       197 -2.275069E-12 -4.973355E-12  1.702205E-13
       198  1.772804E-12 -2.782163E-12 -7.083015E-13
       199  1.712408E-12 -1.748507E-11 -7.509965E-14
       200  1.323386E-12 -6.763035E-12  8.914883E-13
       201  2.311484E-13 -8.600676E-12 -1.389701E-12
       202 -5.239364E-12  8.433809E-13 -1.428458E-12
       203 -1.298517E-12 -1.385975E-11  1.924155E-13
       204 -4.494183E-12  1.318651E-11  1.501646E-12
       205  3.089307E-12 -1.566569E-11  6.733516E-13
       206 -2.814637E-12 -4.999223E-12 -1.931587E-12
       207  1.975309E-12 -6.402379E-12 -7.231993E-13
       208  5.254464E-12  1.498973E-11 -1.697087E-12
       209  1.693090E-12 -6.758372E-12  1.313124E-12
       210 -1.624478E-12  1.193184E-12  2.233103E-12
       211 -2.942535E-12 -2.148770E-11 -1.892930E-12
       212 -6.656897E-12  1.573519E-11  6.962764E-13
       213  8.057111E-12  9.185541E-12  9.122855E-13
       214  2.210676E-12 -3.550493E-12 -6.251111E-13
       215  8.887113E-12 -1.023603E-11  1.770140E-12
       216  9.254819E-12  2.744405E-11 -3.478107E-12
       217 -3.358980E-12 -2.485256E-11 -4.072958E-12
       218 -1.466383E-12 -1.374012E-12  6.323830E-13
       219  3.184120E-13 -7.571721E-13 -3.339695E-14
       220  1.456224E-12  1.090683E-12 -5.075662E-13
       221  6.481926E-12  6.167289E-14 -4.307388E-13
       222 -4.924061E-12 -7.114309E-13  3.869316E-13
       223 -1.133316E-12 -3.936407E-12  6.071677E-13
       224  2.522427E-13  4.514611E-12 -1.833111E-13
       225  4.924949E-13 -4.167333E-12 -1.193062E-12
       226 -9.381385E-14 -3.604228E-12  1.836864E-13
       227 -1.525891E-12  1.852740E-12  1.970216E-12
       228  5.055512E-12 -2.426503E-12 -2.911863E-13
       229  8.482104E-13  1.820766E-12 -1.093788E-12
       230  5.652367E-12 -1.388223E-12  6.354957E-13
       231  1.577405E-12  2.378098E-12  8.936192E-13
       232  5.858147E-12  5.808687E-13 -1.655932E-12
       233 -8.633094E-13  2.019884E-12 -8.503753E-13
       234 -2.716050E-12 -7.597478E-12 -6.035620E-13
       235 -1.516831E-11  1.403322E-13  3.394694E-13
       236 -3.710809E-12 -4.760636E-13 -7.254566E-13
       237  1.700862E-13  8.810730E-13 -2.090244E-12
       238  2.065847E-12 -2.127187E-11 -2.093478E-12
       239 -2.081002E-11  4.381051E-12 -4.894973E-13
       240  6.693313E-12  5.939249E-12 -2.720632E-13
       241 -7.671197E-12  8.038015E-12  2.775259E-12
       242 -2.474465E-12 -6.115997E-12  3.567496E-13
       243  8.304468E-14 -7.638334E-14 -5.382553E-13
       244  3.913148E-12 -1.146461E-11 -2.422729E-12
       245 -1.142197E-12 -3.035239E-12 -3.074985E-12
       246 -5.423217E-12  1.436895E-11  8.950602E-13
       247 -1.536549E-13 -2.331468E-12  3.707043E-12
       248  1.697309E-12 -1.638334E-11  1.597619E-12
       249  8.326673E-13  2.124967E-12  2.214374E-12
       250  5.599077E-12  4.588330E-12 -1.295852E-12
       251 -2.116529E-12  1.465938E-12 -1.011469E-12
       252 -2.717826E-12 -1.320810E-11  1.719438E-12
       253 -1.128253E-11  7.561951E-12  1.824212E-12
       254 -7.935874E-12  1.708766E-11 -3.025243E-12
       255  8.354206E-12 -1.414868E-12  2.732209E-12
       256  8.517853E-12 -2.583533E-11 -5.214496E-12
       257 -4.661160E-12 -1.244072E-11 -1.999290E-12
       258 -1.141931E-11  1.358735E-11 -3.644241E-12
       259 -2.810463E-11  1.464429E-11  1.342793E-12
       260  8.836487E-12  2.254730E-11  6.713302E-13
       261  4.654943E-12 -8.165024E-12  4.193535E-12

 forces (fx,fy,fz) for set N1 and time  0.1000000E+01

       262  6.485756E+02  0.000000E+00  0.000000E+00

 stresses (elem, integ.pnt.,sxx,syy,szz,sxy,sxz,syz) for set EALL and time  0.1000000E+01

         1   1  1.021821E+02 -1.021821E+02  3.373271E-09 -7.566063E-11  1.352869E+03 -1.352869E+03
         1   2  4.412894E+01 -8.983873E+01 -2.295788E+02 -3.539186E+01  1.738027E+03 -3.192586E+02
         1   3  8.983873E+01 -4.412894E+01  2.295788E+02  3.539186E+01  3.192586E+02 -1.738027E+03
         1   4  2.777760E+01 -2.777760E+01  7.332809E-10  2.143718E-11  4.217312E+02 -4.217312E+02
         1   5  1.036100E+02 -1.036100E+02  2.957597E-09 -3.306650E-11  9.804294E+02 -9.804294E+02
         1   6  7.470754E+01 -7.310786E+01 -2.153860E+02 -3.042476E+01  2.171245E+03 -9.790613E+01
         1   7  7.310786E+01 -7.470754E+01  2.153860E+02  3.042476E+01  9.790613E+01 -2.171245E+03
         1   8  2.924752E+01 -2.924752E+01  7.916289E-10 -1.681347E-12  4.162542E+02 -4.162542E+02
         2   1 -4.412894E+01  8.983873E+01  2.295788E+02 -3.539186E+01  1.738027E+03  3.192586E+02
         2   2 -1.021821E+02  1.021821E+02  6.634244E-09  1.440354E-10  1.352869E+03  1.352869E+03
         2   3 -2.777760E+01  2.777760E+01  1.433352E-09 -4.385514E-11  4.217312E+02  4.217312E+02
         2   4 -8.983873E+01  4.412894E+01 -2.295788E+02  3.539186E+01  3.192586E+02  1.738027E+03
         2   5 -7.470754E+01  7.310786E+01  2.153860E+02 -3.042476E+01  2.171245E+03  9.790613E+01
         2   6 -1.036100E+02  1.036100E+02  5.790772E-09  6.949569E-11  9.804294E+02  9.804294E+02
         2   7 -2.924752E+01  2.924752E+01  1.550446E-09 -5.604491E-12  4.162542E+02  4.162542E+02
         2   8 -7.310786E+01  7.470754E+01 -2.153860E+02  3.042476E+01  9.790613E+01  2.171245E+03
         3   1 -8.983873E+01  4.412894E+01 -2.295788E+02  3.539186E+01 -3.192586E+02 -1.738027E+03
         3   2 -2.777760E+01  2.777760E+01 -1.408912E-09  4.077267E-11 -4.217312E+02 -4.217312E+02
         3   3 -1.021821E+02  1.021821E+02 -6.598345E-09 -1.511812E-10 -1.352869E+03 -1.352869E+03
         3   4 -4.412894E+01  8.983873E+01  2.295788E+02 -3.539186E+01 -1.738027E+03 -3.192586E+02