
 displacements (vx,vy,vz) for set NALL and time  0.1000000E+01

         1  0.000000E+00  0.000000E+00  0.000000E+00
         2  2.602910E-02  0.000000E+00  0.000000E+00
         3  2.602910E-02  2.602910E-02  0.000000E+00
         4 -6.204410E-17  2.602910E-02  0.000000E+00
         5  6.991148E-16  5.866813E-16  0.000000E+00
         6  2.602910E-02  7.171620E-16  0.000000E+00
         7  2.602910E-02  2.602910E-02  0.000000E+00
         8  6.173583E-16  2.602910E-02  0.000000E+00
         9  6.507276E-03 -3.057205E-18  0.000000E+00
        10  1.301455E-02 -9.963130E-18  0.000000E+00
        11  1.952183E-02 -2.518922E-17  0.000000E+00
        12  2.602910E-02  6.507276E-03  0.000000E+00
        13  2.602910E-02  1.301455E-02  0.000000E+00
        14  2.602910E-02  1.952183E-02  0.000000E+00
        15  1.952183E-02  2.602910E-02  0.000000E+00
        16  1.301455E-02  2.602910E-02  0.000000E+00
        17  6.507276E-03  2.602910E-02  0.000000E+00
        18 -8.361157E-18  1.952183E-02  0.000000E+00
        19  2.432458E-17  1.301455E-02  0.000000E+00
        20  3.092223E-17  6.507276E-03  0.000000E+00
        21  6.507276E-03  6.538675E-16  0.000000E+00
        22  1.301455E-02  6.935001E-16  0.000000E+00
        23  1.952183E-02  7.236355E-16  0.000000E+00
        24  2.602910E-02  6.507276E-03  0.000000E+00
        25  2.602910E-02  1.301455E-02  0.000000E+00
        26  2.602910E-02  1.952183E-02  0.000000E+00
        27  1.952183E-02  2.602910E-02  0.000000E+00
        28  1.301455E-02  2.602910E-02  0.000000E+00
        29  6.507276E-03  2.602910E-02  0.000000E+00
        30  5.972519E-16  1.952183E-02  0.000000E+00
        31  6.025742E-16  1.301455E-02  0.000000E+00
        32  6.374239E-16  6.507276E-03  0.000000E+00
        33  2.602910E-02 -5.911980E-17 -1.752021E-16
        34  2.602910E-02 -6.335086E-17 -2.825900E-16
        35  2.602910E-02 -9.091482E-17 -2.248608E-16
        36  2.602910E-02 -6.822957E-18 -7.682428E-17
        37  2.602910E-02  1.037786E-16  8.474063E-17
        38  2.602910E-02  2.109801E-16  3.247724E-16
        39  2.602910E-02  4.071822E-16  4.476565E-16
        40  2.602910E-02  5.609450E-16  4.344522E-16
        41  2.602910E-02  7.587018E-16  3.631951E-16
        42  2.602910E-02  9.390942E-16  2.145901E-16
        43  2.602910E-02  9.570238E-16 -3.955405E-20
        44  2.602910E-02  1.001198E-15 -9.868576E-17
        45  2.602910E-02  9.822739E-16 -1.937323E-16
        46  2.602910E-02  8.669924E-16 -1.980692E-16
        47  2.602910E-02  7.727460E-16 -1.181234E-16
        48  6.394994E-16  6.768731E-16  3.367157E-17
        49  5.034906E-16  7.580557E-16  2.951531E-17
        50  3.823801E-16  8.325618E-16  1.182854E-16
        51  2.706775E-16  8.300673E-16  1.619028E-16
        52  1.574311E-16  8.329667E-16  1.401454E-16
        53  1.329463E-16  7.884250E-16  1.145501E-16
        54  2.514191E-16  5.878063E-16  6.808196E-17
        55  4.746504E-16  3.465364E-16  3.957537E-19
        56  7.173828E-16  5.565666E-17  4.234292E-17
        57  8.735771E-16 -1.637446E-16  3.094453E-17
        58  9.564546E-16 -2.757046E-16  1.308065E-16
        59  8.577271E-16 -3.003953E-16  1.857366E-16
        60  5.725122E-16 -1.974941E-16  2.408498E-16
        61  3.179150E-16 -7.739145E-17  1.790517E-16
        62  9.159143E-17 -5.633658E-18  1.198936E-16
        63  2.602910E-02  2.602910E-02 -6.607009E-17
        64  2.602910E-02  2.602910E-02 -1.902339E-16
        65  2.602910E-02  2.602910E-02 -2.207515E-16
        66  2.602910E-02  2.602910E-02 -1.129362E-16
        67  2.602910E-02  2.602910E-02 -7.957253E-17
        68  2.602910E-02  2.602910E-02 -2.671973E-17
        69  2.602910E-02  2.602910E-02  2.454547E-17
        70  2.602910E-02  2.602910E-02  1.004633E-17
        71  2.602910E-02  2.602910E-02  1.107357E-17
        72  2.602910E-02  2.602910E-02 -1.046102E-16
        73  2.602910E-02  2.602910E-02 -9.803009E-17
        74  2.602910E-02  2.602910E-02 -5.354233E-17
        75  2.602910E-02  2.602910E-02 -6.261960E-17
        76  2.602910E-02  2.602910E-02 -6.620586E-17
        77  2.602910E-02  2.602910E-02  2.858984E-18
        78  3.702540E-17  2.602910E-02  1.828202E-16
        79  2.204396E-16  2.602910E-02  3.347639E-16
        80  4.498409E-16  2.602910E-02  2.628635E-16
        81  6.174269E-16  2.602910E-02  1.445404E-16
        82  6.859266E-16  2.602910E-02 -5.735549E-17
        83  6.186233E-16  2.602910E-02 -2.106039E-16
        84  4.254431E-16  2.602910E-02 -4.094113E-16
        85  1.807700E-16  2.602910E-02 -4.260490E-16
        86  4.808119E-17  2.602910E-02 -2.990987E-16
        87 -1.157993E-17  2.602910E-02 -1.070301E-16
        88  3.845254E-18  2.602910E-02  5.097931E-17
        89  1.323824E-16  2.602910E-02  1.513595E-16
        90  3.087984E-16  2.602910E-02  2.353754E-16
        91  4.712469E-16  2.602910E-02  2.249620E-16
        92  5.427451E-16  2.602910E-02  1.310823E-16
        93  1.301455E-02  6.507276E-03  0.000000E+00
        94  6.507276E-03  1.301455E-02  0.000000E+00
        95  1.301455E-02  1.301455E-02  0.000000E+00
        96  1.952183E-02  1.301455E-02  0.000000E+00
        97  1.301455E-02  1.952183E-02  0.000000E+00
        98  1.301455E-02  6.507276E-03  0.000000E+00
        99  6.507276E-03  1.301455E-02  0.000000E+00
       100  1.301455E-02  1.301455E-02  0.000000E+00
       101  1.952183E-02  1.301455E-02  0.000000E+00
       102  1.301455E-02  1.952183E-02  0.000000E+00
       103  1.301455E-02 -6.489001E-17 -3.883667E-17
       104  6.507276E-03 -1.115620E-16  7.158392E-17
       105  1.301455E-02 -9.218937E-17 -2.315303E-17
       106  1.952183E-02 -5.388329E-17 -1.562229E-16
       107  1.301455E-02 -1.321893E-16  7.439140E-18
       108  6.507276E-03 -1.971086E-16  9.906226E-17
       109  1.301455E-02 -1.121629E-16  2.969936E-17
       110  1.952183E-02 -5.993556E-17 -1.635773E-17
       111  1.301455E-02 -8.365976E-17  1.276665E-16
       112  6.507276E-03 -6.761667E-17  1.118233E-16
       113  1.301455E-02  3.171740E-17  1.838039E-16
       114  1.952183E-02  1.229165E-16  2.475669E-16
       115  1.301455E-02  2.194897E-16  2.206915E-16
       116  6.507276E-03  3.831864E-16  1.273407E-16
       117  1.301455E-02  4.216845E-16  2.604200E-16
       118  1.952183E-02  4.836101E-16  3.540659E-16
       119  1.301455E-02  6.732714E-16  2.202658E-16
       120  6.507276E-03  7.824228E-16  1.250246E-16
       121  1.301455E-02  7.933191E-16  1.269660E-16
       122  1.952183E-02  8.544144E-16  1.643263E-16
       123  1.301455E-02  8.976793E-16  1.007002E-16
       124  6.507276E-03  8.830460E-16  8.377667E-17
       125  1.301455E-02  9.078538E-16  6.357985E-19
       126  1.952183E-02  9.381422E-16 -5.572846E-17
       127  1.301455E-02  8.636729E-16 -4.165219E-17
       128  6.507276E-03  7.675423E-16 -2.398238E-17
       129  1.301455E-02  8.151950E-16 -7.371017E-17
       130  1.952183E-02  8.367814E-16 -1.433652E-16
       131  1.301455E-02  7.419251E-16 -5.583457E-17
       132  2.602910E-02  1.301455E-02 -1.515031E-16
       133  2.602910E-02  6.507276E-03 -2.471377E-16
       134  2.602910E-02  1.301455E-02 -2.030964E-16
       135  2.602910E-02  1.952183E-02 -2.012906E-16
       136  2.602910E-02  1.301455E-02 -2.373894E-16
       137  2.602910E-02  6.507276E-03 -1.088734E-16
       138  2.602910E-02  1.301455E-02 -1.268127E-16
       139  2.602910E-02  1.952183E-02 -1.233175E-16
       140  2.602910E-02  1.301455E-02  2.424080E-17
       141  2.602910E-02  6.507276E-03  2.216139E-16
       142  2.602910E-02  1.301455E-02  1.193251E-16
       143  2.602910E-02  1.952183E-02  5.444037E-17
       144  2.602910E-02  1.301455E-02  2.435803E-16
       145  2.602910E-02  6.507276E-03  3.478159E-16
       146  2.602910E-02  1.301455E-02  2.597302E-16
       147  2.602910E-02  1.952183E-02  1.443749E-16
       148  2.602910E-02  1.301455E-02  1.502541E-16
       149  2.602910E-02  6.507276E-03  1.594263E-16
       150  2.602910E-02  1.301455E-02  9.633532E-17
       151  2.602910E-02  1.952183E-02 -3.971692E-18
       152  2.602910E-02  1.301455E-02 -3.708972E-17
       153  2.602910E-02  6.507276E-03 -1.176311E-16
       154  2.602910E-02  1.301455E-02 -1.335397E-16
       155  2.602910E-02  1.952183E-02 -1.103225E-16
       156  2.602910E-02  1.301455E-02 -1.368772E-16
       157  2.602910E-02  6.507276E-03 -1.475006E-16
       158  2.602910E-02  1.301455E-02 -1.016221E-16
       159  2.602910E-02  1.952183E-02 -8.423928E-17
       160  2.602910E-02  1.301455E-02 -7.918598E-17
       161  1.301455E-02  2.602910E-02  6.838608E-17
       162  1.952183E-02  2.602910E-02 -5.885667E-17
       163  1.301455E-02  2.602910E-02  5.386217E-17
       164  6.507276E-03  2.602910E-02  1.914645E-16
       165  1.301455E-02  2.602910E-02  5.329013E-17
       166  1.952183E-02  2.602910E-02 -7.493875E-17
       167  1.301455E-02  2.602910E-02 -2.103968E-17
       168  6.507276E-03  2.602910E-02  7.318027E-17
       169  1.301455E-02  2.602910E-02 -5.035976E-17
       170  1.952183E-02  2.602910E-02 -9.214425E-17
       171  1.301455E-02  2.602910E-02 -1.501899E-16
       172  6.507276E-03  2.602910E-02 -1.863370E-16
       173  1.301455E-02  2.602910E-02 -2.035300E-16
       174  1.952183E-02  2.602910E-02 -9.826723E-17
       175  1.301455E-02  2.602910E-02 -1.708793E-16
       176  6.507276E-03  2.602910E-02 -2.893934E-16
       177  1.301455E-02  2.602910E-02 -1.747881E-16
       178  1.952183E-02  2.602910E-02 -8.035132E-17
       179  1.301455E-02  2.602910E-02 -7.808128E-17
       180  6.507276E-03  2.602910E-02 -1.072938E-16
       181  1.301455E-02  2.602910E-02 -1.834595E-17
       182  1.952183E-02  2.602910E-02 -1.576634E-17
       183  1.301455E-02  2.602910E-02  2.971503E-17
       184  6.507276E-03  2.602910E-02  9.301704E-17
       185  1.301455E-02  2.602910E-02  9.210733E-17
       186  1.952183E-02  2.602910E-02  4.031215E-17
       187  1.301455E-02  2.602910E-02  1.362024E-16
       188  6.507276E-03  2.602910E-02  1.759936E-16
       189  1.301455E-02  2.602910E-02  5.537738E-17
       190  8.920928E-17  1.301455E-02  1.515232E-16
       191  2.310198E-16  1.952183E-02  2.952339E-16
       192  2.684318E-16  1.301455E-02  2.640760E-16
       193  3.241129E-16  6.507276E-03  2.351450E-16
       194  5.142396E-16  1.301455E-02  2.614558E-16
       195  6.432933E-16  1.952183E-02  1.784473E-16
       196  6.853865E-16  1.301455E-02  1.934496E-16
       197  7.543683E-16  6.507276E-03  1.985997E-16
       198  7.792121E-16  1.301455E-02  3.629724E-17
       199  6.544960E-16  1.952183E-02 -1.554969E-16
       200  7.191735E-16  1.301455E-02 -8.946290E-17
       201  7.936141E-16  6.507276E-03 -3.292608E-17
       202  5.572306E-16  1.301455E-02 -2.177854E-16
       203  2.932860E-16  1.952183E-02 -3.117535E-16
       204  3.888296E-16  1.301455E-02 -1.777227E-16
       205  4.314735E-16  6.507276E-03 -9.597190E-17
       206  1.770514E-16  1.301455E-02 -1.381580E-16
       207  3.130026E-17  1.952183E-02 -5.963010E-17
       208  8.897842E-17  1.301455E-02 -2.041083E-17
       209  1.281656E-16  6.507276E-03  4.687888E-17
       210  8.614680E-17  1.301455E-02  1.087486E-16
       211  1.801896E-16  1.952183E-02  1.822214E-16
       212  1.911704E-16  1.301455E-02  1.951808E-16
       213  2.098118E-16  6.507276E-03  1.756887E-16
       214  3.450076E-16  1.301455E-02  1.572695E-16
       215  4.364646E-16  1.952183E-02  1.906973E-16
       216  4.711898E-16  1.301455E-02  1.531328E-16
       217  5.108366E-16  6.507276E-03  9.183330E-17
       218  5.818424E-16  1.301455E-02  8.273981E-17
       219  1.301455E-02  1.301455E-02  1.154678E-17
       220  1.301455E-02  6.507276E-03 -4.002622E-18
       221  6.507276E-03  1.301455E-02  1.455355E-16
       222  1.301455E-02  1.301455E-02  1.565145E-17
       223  1.952183E-02  1.301455E-02 -1.020669E-16
       224  1.301455E-02  1.952183E-02  3.218061E-17
       225  1.301455E-02  1.301455E-02  2.316672E-17
       226  1.301455E-02  6.507276E-03  3.530440E-17
       227  6.507276E-03  1.301455E-02  1.177925E-16
       228  1.301455E-02  1.301455E-02  4.330084E-17
       229  1.952183E-02  1.301455E-02 -4.622282E-17
       230  1.301455E-02  1.952183E-02  1.291340E-17
       231  1.301455E-02  1.301455E-02  2.672950E-17
       232  1.301455E-02  6.507276E-03  1.034615E-16
       233  6.507276E-03  1.301455E-02 -3.733504E-17
       234  1.301455E-02  1.301455E-02  1.867920E-17
       235  1.952183E-02  1.301455E-02  6.927280E-17
       236  1.301455E-02  1.952183E-02 -6.585245E-17
       237  1.301455E-02  1.301455E-02  2.320459E-17
       238  1.301455E-02  6.507276E-03  1.246150E-16
       239  6.507276E-03  1.301455E-02 -9.829507E-17
       240  1.301455E-02  1.301455E-02 -5.868407E-18
       241  1.952183E-02  1.301455E-02  1.305057E-16
       242  1.301455E-02  1.952183E-02 -9.376512E-17
       243  1.301455E-02  1.301455E-02  2.412355E-17
       244  1.301455E-02  6.507276E-03  8.361967E-17
       245  6.507276E-03  1.301455E-02  1.299347E-17
       246  1.301455E-02  1.301455E-02  3.629805E-17
       247  1.952183E-02  1.301455E-02  6.174979E-17
       248  1.301455E-02  1.952183E-02 -1.718289E-17
       249  1.301455E-02  1.301455E-02  3.583226E-17
       250  1.301455E-02  6.507276E-03  2.133676E-18
       251  6.507276E-03  1.301455E-02  9.916386E-17
       252  1.301455E-02  1.301455E-02  8.145439E-18
       253  1.952183E-02  1.301455E-02 -6.264806E-17
       254  1.301455E-02  1.952183E-02  1.938446E-17
       255  1.301455E-02  1.301455E-02  2.745666E-17
       256  1.301455E-02  6.507276E-03 -4.045203E-17
       257  6.507276E-03  1.301455E-02  7.384468E-17
       258  1.301455E-02  1.301455E-02 -8.519161E-18
       259  1.952183E-02  1.301455E-02 -5.567032E-17
       260  1.301455E-02  1.952183E-02  6.197386E-17
       261  1.301455E-02  1.301455E-02  1.957476E-17

 stresses (elem, integ.pnt.,sxx,syy,szz,sxy,sxz,syz) for set EALL and time  0.1000000E+01

         1   1 -4.533768E-03 -4.533768E-03 -8.958736E+02  6.813871E-13 -6.047075E-14  1.434125E-13
         1   2 -4.533768E-03 -4.533768E-03 -8.958736E+02 -9.509681E-13 -4.937425E-13 -5.114092E-13
         1   3 -4.533768E-03 -4.533768E-03 -8.958736E+02 -5.559891E-13  6.786336E-14  2.670116E-13
         1   4 -4.533768E-03 -4.533768E-03 -8.958736E+02  5.580272E-13  7.702247E-14  8.858933E-13
         1   5 -4.533768E-03 -4.533768E-03 -8.958736E+02 -6.540738E-13  3.909081E-13  2.079102E-13
         1   6 -4.533768E-03 -4.533768E-03 -8.958736E+02  2.864081E-13  3.859833E-13  4.019052E-13
         1   7 -4.533768E-03 -4.533768E-03 -8.958736E+02 -6.389839E-13 -9.721633E-14 -1.027620E-12
         1   8 -4.533768E-03 -4.533768E-03 -8.958736E+02  4.496880E-14 -2.121911E-13 -2.799094E-13
         2   1 -4.533768E-03 -4.533768E-03 -8.958736E+02 -8.148575E-13 -2.210926E-13 -5.901513E-13
         2   2 -4.533768E-03 -4.533768E-03 -8.958736E+02  9.506671E-13  3.856194E-13 -1.238851E-12
         2   3 -4.533768E-03 -4.533768E-03 -8.958736E+02  4.828785E-13 -5.954850E-13 -5.153543E-14
         2   4 -4.533768E-03 -4.533768E-03 -8.958736E+02 -2.037144E-13  3.892727E-13 -2.340330E-13
         2   5 -4.533768E-03 -4.533768E-03 -8.958736E+02  6.639580E-13 -3.862637E-13  7.317429E-13
         2   6 -4.533768E-03 -4.533768E-03 -8.958736E+02 -8.073125E-13  5.490449E-13  9.041414E-13
         2   7 -4.533768E-03 -4.533768E-03 -8.958736E+02  1.207196E-13 -8.491411E-13 -5.865222E-13
         2   8 -4.533768E-03 -4.533768E-03 -8.958736E+02 -2.263493E-13 -4.244772E-13 -3.203357E-13
         3   1 -4.533768E-03 -4.533768E-03 -8.958736E+02 -9.225524E-15  1.306055E-13  5.919305E-13
         3   2 -4.533768E-03 -4.533768E-03 -8.958736E+02  1.162347E-12  2.636968E-13  6.913159E-13
         3   3 -4.533768E-03 -4.533768E-03 -8.958736E+02  8.433569E-13  9.097833E-13 -4.559835E-13
         3   4 -4.533768E-03 -4.533768E-03 -8.958736E+02  3.625795E-13 -1.138112E-13 -4.324272E-13
         3   5 -4.533768E-03 -4.533768E-03 -8.958736E+02 -1.601251E-13 -3.503131E-13 -6.857172E-13
         3   6 -4.533768E-03 -4.533768E-03 -8.958736E+02 -3.466483E-13  1.715125E-13 -4.711105E-13
         3   7 -4.533768E-03 -4.533768E-03 -8.958736E+02 -2.808447E-13 -4.722635E-13  7.751395E-13
         3   8 -4.533768E-03 -4.533768E-03 -8.958736E+02 -2.108388E-13  8.526855E-13  4.959861E-13
         4   1 -4.533768E-03 -4.533768E-03 -8.958736E+02  1.131747E-12 -6.034553E-13  5.321079E-13
         4   2 -4.533768E-03 -4.533768E-03 -8.958736E+02 -3.244340E-13  1.317246E-13  1.009458E-12
         4   3 -4.533768E-03 -4.533768E-03 -8.958736E+02 -6.337781E-13 -8.680294E-13 -1.133658E-12
         4   4 -4.533768E-03 -4.533768E-03 -8.958736E+02  1.312826E-12  6.508384E-13 -2.550529E-13
         4   5 -4.533768E-03 -4.533768E-03 -8.958736E+02 -6.035981E-14 -3.900719E-13 -7.722377E-13
         4   6 -4.533768E-03 -4.533768E-03 -8.958736E+02 -2.716192E-13 -2.688609E-13 -6.665292E-13
         4   7 -4.533768E-03 -4.533768E-03 -8.958736E+02 -6.035981E-14  6.891229E-13  9.654841E-13
         4   8 -4.533768E-03 -4.533768E-03 -8.958736E+02  5.206034E-13 -5.222584E-13  2.784137E-13
         5   1 -4.533768E-03 -4.533768E-03 -8.958736E+02 -6.110392E-14  7.598977E-14 -2.230581E-13
         5   2 -4.533768E-03 -4.533768E-03 -8.958736E+02  2.950555E-13  2.380949E-12 -6.298947E-14
         5   3 -4.533768E-03 -4.533768E-03 -8.958736E+02  3.312349E-13 -4.528624E-13 -8.076077E-13
         5   4 -4.533768E-03 -4.533768E-03 -8.958736E+02 -2.859077E-13 -2.778650E-13  1.213346E-13
         5   5 -4.533768E-03 -4.533768E-03 -8.958736E+02 -1.583406E-14  5.496205E-13 -7.561668E-13
         5   6 -4.533768E-03 -4.533768E-03 -8.958736E+02  3.478703E-13  9.514684E-13  7.256903E-13
         5   7 -4.533768E-03 -4.533768E-03 -8.958736E+02  4.670445E-13 -8.047750E-13 -9.573201E-13
         5   8 -4.533768E-03 -4.533768E-03 -8.958736E+02 -4.669872E-13  4.764377E-13  6.712435E-14
         6   1 -4.533768E-03 -4.533768E-03 -8.958736E+02  3.017991E-14  9.591529E-13 -7.996618E-13
         6   2 -4.533768E-03 -4.533768E-03 -8.958736E+02 -3.546139E-13 -2.706736E-13 -5.018642E-13
         6   3 -4.533768E-03 -4.533768E-03 -8.958736E+02 -1.207196E-12 -6.178729E-13  1.750870E-13
         6   4 -4.533768E-03 -4.533768E-03 -8.958736E+02  7.167728E-13 -2.200104E-14  1.179072E-12
         6   5 -4.533768E-03 -4.533768E-03 -8.958736E+02  6.715029E-13  9.291132E-13  3.084383E-13
         6   6 -4.533768E-03 -4.533768E-03 -8.958736E+02 -4.526986E-13  9.672883E-13  2.961440E-13
         6   7 -4.533768E-03 -4.533768E-03 -8.958736E+02 -9.053972E-14 -6.832748E-13 -3.737938E-14
         6   8 -4.533768E-03 -4.533768E-03 -8.958736E+02  7.394077E-13 -1.080040E-12 -1.374341E-13
         7   1 -4.533768E-03 -4.533768E-03 -8.958736E+02  1.188405E-13 -1.832608E-14 -3.708763E-14
         7   2 -4.533768E-03 -4.533768E-03 -8.958736E+02 -8.430317E-13 -3.389878E-13  5.731274E-13
         7   3 -4.533768E-03 -4.533768E-03 -8.958736E+02  1.565653E-13 -1.663064E-13  2.437461E-13
         7   4 -4.533768E-03 -4.533768E-03 -8.958736E+02  1.058302E-12 -4.659771E-14  6.145934E-14
         7   5 -4.533768E-03 -4.533768E-03 -8.958736E+02  4.659094E-13 -5.867328E-13 -2.567380E-13
         7   6 -4.533768E-03 -4.533768E-03 -8.958736E+02 -1.790737E-13  2.470656E-13 -3.310539E-13
         7   7 -4.533768E-03 -4.533768E-03 -8.958736E+02 -4.093079E-13  6.224348E-14 -5.426544E-16
         7   8 -4.533768E-03 -4.533768E-03 -8.958736E+02  6.961436E-13  9.419281E-14  5.000107E-13
         8   1 -4.533768E-03 -4.533768E-03 -8.958736E+02 -2.112594E-13 -5.703186E-13  9.260824E-13
         8   2 -4.533768E-03 -4.533768E-03 -8.958736E+02  7.167728E-13  4.351973E-13 -1.077450E-13
         8   3 -4.533768E-03 -4.533768E-03 -8.958736E+02 -2.414393E-13 -2.672851E-13  5.483982E-13
         8   4 -4.533768E-03 -4.533768E-03 -8.958736E+02 -4.526986E-14 -3.638394E-13 -1.020833E-12
         8   5 -4.533768E-03 -4.533768E-03 -8.958736E+02  2.112594E-13 -7.241386E-13 -1.910546E-13
         8   6 -4.533768E-03 -4.533768E-03 -8.958736E+02  2.263493E-13 -8.569509E-13  2.911408E-13
         8   7 -4.533768E-03 -4.533768E-03 -8.958736E+02  8.450374E-13  8.272139E-15  5.913842E-13
         8   8 -4.533768E-03 -4.533768E-03 -8.958736E+02 -3.697039E-13 -6.159778E-14  4.581804E-13
         9   1 -4.533768E-03 -4.533768E-03 -8.958736E+02 -2.837428E-13  1.059257E-13 -3.600947E-13
         9   2 -4.533768E-03 -4.533768E-03 -8.958736E+02 -2.066292E-14  1.017394E-12 -3.593001E-13
         9   3 -4.533768E-03 -4.533768E-03 -8.958736E+02 -1.705682E-13  1.358587E-13 -5.729380E-13
         9   4 -4.533768E-03 -4.533768E-03 -8.958736E+02  1.076017E-13 -2.414024E-13  3.217393E-13
         9   5 -4.533768E-03 -4.533768E-03 -8.958736E+02  3.651252E-13  1.922003E-13 -4.637762E-13
         9   6 -4.533768E-03 -4.533768E-03 -8.958736E+02 -1.413825E-13  1.238037E-12 -6.671519E-13
         9   7 -4.533768E-03 -4.533768E-03 -8.958736E+02  3.953051E-13  1.278803E-13 -6.104193E-15
         9   8 -4.533768E-03 -4.533768E-03 -8.958736E+02  1.377816E-13  8.364231E-13 -5.585331E-13
        10   1 -4.533768E-03 -4.533768E-03 -8.958736E+02  9.355771E-13  8.472399E-13 -1.795405E-13
        10   2 -4.533768E-03 -4.533768E-03 -8.958736E+02  1.048752E-12  4.387048E-13  7.177314E-13
        10   3 -4.533768E-03 -4.533768E-03 -8.958736E+02 -1.207196E-13 -8.234395E-13  1.909633E-13
        10   4 -4.533768E-03 -4.533768E-03 -8.958736E+02  6.564130E-13  4.146683E-13  3.285701E-13
        10   5 -4.533768E-03 -4.533768E-03 -8.958736E+02 -5.130584E-13  3.197952E-13 -4.669425E-13
        10   6 -4.533768E-03 -4.533768E-03 -8.958736E+02 -7.544977E-15  3.713550E-13 -4.399713E-13
        10   7 -4.533768E-03 -4.533768E-03 -8.958736E+02 -8.450374E-13 -4.922842E-14 -1.232803E-13
        10   8 -4.533768E-03 -4.533768E-03 -8.958736E+02 -4.225187E-13 -1.373280E-13  1.023842E-12
        11   1 -4.533768E-03 -4.533768E-03 -8.958736E+02  8.449816E-14  1.761541E-13 -9.070283E-14
        11   2 -4.533768E-03 -4.533768E-03 -8.958736E+02 -4.854974E-13 -4.794553E-13  3.651302E-13
        11   3 -4.533768E-03 -4.533768E-03 -8.958736E+02  2.504876E-13  3.678565E-13 -2.306239E-13
        11   4 -4.533768E-03 -4.533768E-03 -8.958736E+02  4.265099E-14 -9.650434E-13 -3.346124E-13
        11   5 -4.533768E-03 -4.533768E-03 -8.958736E+02  9.204313E-14 -2.899249E-13 -7.488509E-14
        11   6 -4.533768E-03 -4.533768E-03 -8.958736E+02 -1.770883E-14  3.780879E-13  1.049902E-13
        11   7 -4.533768E-03 -4.533768E-03 -8.958736E+02 -1.720311E-13 -7.697740E-13 -1.746844E-13
        11   8 -4.533768E-03 -4.533768E-03 -8.958736E+02  2.539103E-13 -2.985412E-13 -3.129445E-14
        12   1 -4.533768E-03 -4.533768E-03 -8.958736E+02 -2.263493E-13 -1.142822E-12  3.710069E-14
        12   2 -4.533768E-03 -4.533768E-03 -8.958736E+02 -9.053972E-13  1.618442E-12 -2.924562E-14
        12   3 -4.533768E-03 -4.533768E-03 -8.958736E+02  6.035981E-13 -1.213524E-12 -1.655465E-14
        12   4 -4.533768E-03 -4.533768E-03 -8.958736E+02 -1.056297E-12  9.195246E-13  8.973002E-13
        12   5 -4.533768E-03 -4.533768E-03 -8.958736E+02  5.734182E-13  2.559802E-15  5.652069E-13
        12   6 -4.533768E-03 -4.533768E-03 -8.958736E+02  3.395240E-13  1.262616E-13  1.549900E-12
        12   7 -4.533768E-03 -4.533768E-03 -8.958736E+02  5.432383E-13 -1.210831E-12 -6.390158E-13
        12   8 -4.533768E-03 -4.533768E-03 -8.958736E+02 -6.715029E-13 -2.789462E-13 -3.764182E-13
        13   1 -4.533768E-03 -4.533768E-03 -8.958736E+02  4.990543E-13  3.626270E-13 -2.997823E-13
        13   2 -4.533768E-03 -4.533768E-03 -8.958736E+02  4.605297E-13 -8.376929E-13  1.211961E-14
        13   3 -4.533768E-03 -4.533768E-03 -8.958736E+02 -2.403534E-13  6.249737E-13 -2.336299E-13
        13   4 -4.533768E-03 -4.533768E-03 -8.958736E+02  3.171751E-13  7.114221E-13  3.424675E-14
        13   5 -4.533768E-03 -4.533768E-03 -8.958736E+02 -5.647874E-13 -4.600262E-13  2.455467E-13
        13   6 -4.533768E-03 -4.533768E-03 -8.958736E+02  1.210057E-13 -4.114154E-13 -7.911361E-13
        13   7 -4.533768E-03 -4.533768E-03 -8.958736E+02  2.727050E-13  4.540196E-13 -6.216910E-14
        13   8 -4.533768E-03 -4.533768E-03 -8.958736E+02 -2.562431E-13 -2.281497E-13  8.767044E-14
        14   1 -4.533768E-03 -4.533768E-03 -8.958736E+02  1.131747E-13 -4.452242E-13  1.490603E-13
        14   2 -4.533768E-03 -4.533768E-03 -8.958736E+02 -9.053972E-13  1.917800E-12 -3.288963E-13
        14   3 -4.533768E-03 -4.533768E-03 -8.958736E+02  1.508995E-13 -2.091953E-13 -2.164298E-13
        14   4 -4.533768E-03 -4.533768E-03 -8.958736E+02  1.011027E-12  4.193188E-13 -3.194483E-13
        14   5 -4.533768E-03 -4.533768E-03 -8.958736E+02  3.998838E-13 -4.577235E-13 -1.053741E-12
        14   6 -4.533768E-03 -4.533768E-03 -8.958736E+02 -4.526986E-13 -1.698728E-13 -8.463688E-13
        14   7 -4.533768E-03 -4.533768E-03 -8.958736E+02 -4.177215E-27  5.403153E-14  4.629641E-13
        14   8 -4.533768E-03 -4.533768E-03 -8.958736E+02  7.394077E-13  9.294829E-13  1.111552E-12
        15   1 -4.533768E-03 -4.533768E-03 -8.958736E+02 -1.011607E-13  2.591107E-13  3.027834E-13
        15   2 -4.533768E-03 -4.533768E-03 -8.958736E+02 -1.038081E-12  8.960858E-13 -3.927824E-13
        15   3 -4.533768E-03 -4.533768E-03 -8.958736E+02  2.006384E-13 -1.115765E-12 -1.110532E-13
        15   4 -4.533768E-03 -4.533768E-03 -8.958736E+02 -8.741364E-14 -7.065937E-13  3.328191E-13
        15   5 -4.533768E-03 -4.533768E-03 -8.958736E+02  2.006384E-13  7.692895E-13 -6.780713E-13
        15   6 -4.533768E-03 -4.533768E-03 -8.958736E+02  9.839731E-13 -4.860733E-13  5.377838E-13
        15   7 -4.533768E-03 -4.533768E-03 -8.958736E+02 -6.142191E-13  6.599445E-13 -3.408480E-13
        15   8 -4.533768E-03 -4.533768E-03 -8.958736E+02  5.765443E-13 -1.126690E-12  3.824585E-13
        16   1 -4.533768E-03 -4.533768E-03 -8.958736E+02 -7.544977E-14 -4.519842E-14 -8.038757E-13
        16   2 -4.533768E-03 -4.533768E-03 -8.958736E+02  4.904235E-13  2.543640E-13  6.065768E-13
        16   3 -4.533768E-03 -4.533768E-03 -8.958736E+02  3.017991E-13 -7.202857E-13 -1.109236E-13
        16   4 -4.533768E-03 -4.533768E-03 -8.958736E+02 -1.358096E-13 -1.304512E-12  1.346535E-12
        16   5 -4.533768E-03 -4.533768E-03 -8.958736E+02  1.961694E-13 -3.529467E-13  2.874336E-13
        16   6 -4.533768E-03 -4.533768E-03 -8.958736E+02 -3.847938E-13  1.953320E-12  8.112191E-13
        16   7 -4.533768E-03 -4.533768E-03 -8.958736E+02  1.207196E-12 -2.215401E-12 -1.903778E-13
        16   8 -4.533768E-03 -4.533768E-03 -8.958736E+02 -1.237376E-12  5.459827E-13  4.585427E-13
        17   1 -4.533768E-03 -4.533768E-03 -8.958736E+02  9.845896E-15 -2.798590E-13  3.745236E-13
        17   2 -4.533768E-03 -4.533768E-03 -8.958736E+02 -3.770080E-13  5.590440E-13 -4.924932E-14
        17   3 -4.533768E-03 -4.533768E-03 -8.958736E+02  3.870947E-13 -8.160498E-13  6.677235E-13
        17   4 -4.533768E-03 -4.533768E-03 -8.958736E+02 -3.694630E-13  4.191807E-13 -8.210668E-13
        17   5 -4.533768E-03 -4.533768E-03 -8.958736E+02  7.020571E-14 -3.302602E-13 -6.999462E-14
        17   6 -4.533768E-03 -4.533768E-03 -8.958736E+02  3.796570E-14 -7.416917E-13 -3.616560E-13
        17   7 -4.533768E-03 -4.533768E-03 -8.958736E+02 -7.314885E-14  1.002433E-12  8.155802E-14
        17   8 -4.533768E-03 -4.533768E-03 -8.958736E+02  1.435954E-13 -1.109815E-15  7.139706E-13
        18   1 -4.533768E-03 -4.533768E-03 -8.958736E+02 -7.771326E-13 -6.598490E-13 -1.754361E-13
        18   2 -4.533768E-03 -4.533768E-03 -8.958736E+02 -4.451536E-13 -3.665487E-13 -1.608301E-13
        18   3 -4.533768E-03 -4.533768E-03 -8.958736E+02 -2.414393E-13  4.144172E-13 -9.827300E-13
        18   4 -4.533768E-03 -4.533768E-03 -8.958736E+02  1.071387E-12  6.215907E-14 -1.647887E-13
        18   5 -4.533768E-03 -4.533768E-03 -8.958736E+02 -1.961694E-13 -3.162019E-13 -2.828022E-13
        18   6 -4.533768E-03 -4.533768E-03 -8.958736E+02 -3.017991E-13  7.203849E-13 -1.066158E-13
        18   7 -4.533768E-03 -4.533768E-03 -8.958736E+02 -1.429594E-27 -1.009656E-12  5.535889E-13
        18   8 -4.533768E-03 -4.533768E-03 -8.958736E+02 -5.809632E-13  3.613310E-13 -9.919006E-13
        19   1 -4.533768E-03 -4.533768E-03 -8.958736E+02 -3.132893E-15 -6.456983E-13  3.841916E-14
        19   2 -4.533768E-03 -4.533768E-03 -8.958736E+02 -5.338917E-13  4.819865E-13 -1.641700E-13
        19   3 -4.533768E-03 -4.533768E-03 -8.958736E+02  1.628566E-13  9.339570E-13 -7.332447E-13
        19   4 -4.533768E-03 -4.533768E-03 -8.958736E+02 -9.628299E-14 -6.386986E-13  6.368777E-13
        19   5 -4.533768E-03 -4.533768E-03 -8.958736E+02  1.326767E-13  7.308398E-13  1.385344E-12
        19   6 -4.533768E-03 -4.533768E-03 -8.958736E+02  4.318654E-13  2.453039E-13  5.573552E-13
        19   7 -4.533768E-03 -4.533768E-03 -8.958736E+02  4.571107E-13 -4.239218E-13  6.198141E-13
        19   8 -4.533768E-03 -4.533768E-03 -8.958736E+02 -6.697012E-13  3.558587E-13 -1.498474E-12
        20   1 -4.533768E-03 -4.533768E-03 -8.958736E+02 -4.526986E-14  8.161295E-13 -1.811660E-13
        20   2 -4.533768E-03 -4.533768E-03 -8.958736E+02  9.883920E-13  7.375125E-13  1.230530E-12
        20   3 -4.533768E-03 -4.533768E-03 -8.958736E+02  6.035981E-14 -1.081324E-12  2.981700E-13
        20   4 -4.533768E-03 -4.533768E-03 -8.958736E+02  8.374924E-13  1.188185E-12  8.456243E-14
        20   5 -4.533768E-03 -4.533768E-03 -8.958736E+02  9.053972E-14 -6.445209E-13  4.777637E-13
        20   6 -4.533768E-03 -4.533768E-03 -8.958736E+02 -7.167728E-13  5.890352E-13  1.017304E-14
        20   7 -4.533768E-03 -4.533768E-03 -8.958736E+02 -1.478815E-12  2.556789E-13 -9.120184E-13
        20   8 -4.533768E-03 -4.533768E-03 -8.958736E+02  6.186881E-13 -2.842779E-13 -6.390934E-14
        21   1 -4.533768E-03 -4.533768E-03 -8.958736E+02 -1.593176E-13  2.632954E-13 -4.670697E-13