    1C
    1UModel: beam     Date: 10-Mar-1998                                 
    1UUSER                                                              
    1UDATE              15.december.2018                                
    1UTIME              15:48:29                                        
    1UHOST                                                              
    1UPGM               CalculiX                                        
    1UVERSION           Version 2.15                             
    1UCOMPILETIME       Sa 15. Dez 14:32:01 CET 2018                    
    1UDIR                                                               
    1UDBN                                                               
    1UMAT    1EL                                                        
    2C                           261                                     1
 -1         1 0.00000E+00 0.00000E+00 0.00000E+00
 -1         2 1.00000E+00 0.00000E+00 0.00000E+00
 -1         3 1.00000E+00 1.50000E+00 0.00000E+00
 -1         4 0.00000E+00 1.50000E+00 0.00000E+00
 -1         5 0.00000E+00 0.00000E+00 8.00000E+00
 -1         6 1.00000E+00 0.00000E+00 8.00000E+00
 -1         7 1.00000E+00 1.50000E+00 8.00000E+00
 -1         8 0.00000E+00 1.50000E+00 8.00000E+00
 -1         9 2.50000E-01 0.00000E+00 0.00000E+00
 -1        10 5.00000E-01 0.00000E+00 0.00000E+00
 -1        11 7.50000E-01 0.00000E+00 0.00000E+00
 -1        12 1.00000E+00 3.75000E-01 0.00000E+00
 -1        13 1.00000E+00 7.50000E-01 0.00000E+00
 -1        14 1.00000E+00 1.12500E+00 0.00000E+00
 -1        15 7.50000E-01 1.50000E+00 0.00000E+00
 -1        16 5.00000E-01 1.50000E+00 0.00000E+00
 -1        17 2.50000E-01 1.50000E+00 0.00000E+00
 -1        18 0.00000E+00 1.12500E+00 0.00000E+00
 -1        19 0.00000E+00 7.50000E-01 0.00000E+00
 -1        20 0.00000E+00 3.75000E-01 0.00000E+00
 -1        21 2.50000E-01 0.00000E+00 8.00000E+00
 -1        22 5.00000E-01 0.00000E+00 8.00000E+00
 -1        23 7.50000E-01 0.00000E+00 8.00000E+00
 -1        24 1.00000E+00 3.75000E-01 8.00000E+00
 -1        25 1.00000E+00 7.50000E-01 8.00000E+00
 -1        26 1.00000E+00 1.12500E+00 8.00000E+00
 -1        27 7.50000E-01 1.50000E+00 8.00000E+00
 -1        28 5.00000E-01 1.50000E+00 8.00000E+00
 -1        29 2.50000E-01 1.50000E+00 8.00000E+00
 -1        30 0.00000E+00 1.12500E+00 8.00000E+00
 -1        31 0.00000E+00 7.50000E-01 8.00000E+00
 -1        32 0.00000E+00 3.75000E-01 8.00000E+00
 -1        33 1.00000E+00 0.00000E+00 5.00000E-01
 -1        34 1.00000E+00 0.00000E+00 1.00000E+00
 -1        35 1.00000E+00 0.00000E+00 1.50000E+00
 -1        36 1.00000E+00 0.00000E+00 2.00000E+00
 -1        37 1.00000E+00 0.00000E+00 2.50000E+00
 -1        38 1.00000E+00 0.00000E+00 3.00000E+00
 -1        39 1.00000E+00 0.00000E+00 3.50000E+00
 -1        40 1.00000E+00 0.00000E+00 4.00000E+00
 -1        41 1.00000E+00 0.00000E+00 4.50000E+00
 -1        42 1.00000E+00 0.00000E+00 5.00000E+00
 -1        43 1.00000E+00 0.00000E+00 5.50000E+00
 -1        44 1.00000E+00 0.00000E+00 6.00000E+00
 -1        45 1.00000E+00 0.00000E+00 6.50000E+00
 -1        46 1.00000E+00 0.00000E+00 7.00000E+00
 -1        47 1.00000E+00 0.00000E+00 7.50000E+00
 -1        48 0.00000E+00 0.00000E+00 7.50000E+00
 -1        49 0.00000E+00 0.00000E+00 7.00000E+00
 -1        50 0.00000E+00 0.00000E+00 6.50000E+00
 -1        51 0.00000E+00 0.00000E+00 6.00000E+00
 -1        52 0.00000E+00 0.00000E+00 5.50000E+00
 -1        53 0.00000E+00 0.00000E+00 5.00000E+00
 -1        54 0.00000E+00 0.00000E+00 4.50000E+00
 -1        55 0.00000E+00 0.00000E+00 4.00000E+00
 -1        56 0.00000E+00 0.00000E+00 3.50000E+00
 -1        57 0.00000E+00 0.00000E+00 3.00000E+00
 -1        58 0.00000E+00 0.00000E+00 2.50000E+00
 -1        59 0.00000E+00 0.00000E+00 2.00000E+00
 -1        60 0.00000E+00 0.00000E+00 1.50000E+00
 -1        61 0.00000E+00 0.00000E+00 1.00000E+00
 -1        62 0.00000E+00 0.00000E+00 5.00000E-01
 -1        63 1.00000E+00 1.50000E+00 5.00000E-01
 -1        64 1.00000E+00 1.50000E+00 1.00000E+00
 -1        65 1.00000E+00 1.50000E+00 1.50000E+00
 -1        66 1.00000E+00 1.50000E+00 2.00000E+00
 -1        67 1.00000E+00 1.50000E+00 2.50000E+00
 -1        68 1.00000E+00 1.50000E+00 3.00000E+00
 -1        69 1.00000E+00 1.50000E+00 3.50000E+00
 -1        70 1.00000E+00 1.50000E+00 4.00000E+00
 -1        71 1.00000E+00 1.50000E+00 4.50000E+00
 -1        72 1.00000E+00 1.50000E+00 5.00000E+00
 -1        73 1.00000E+00 1.50000E+00 5.50000E+00
 -1        74 1.00000E+00 1.50000E+00 6.00000E+00
 -1        75 1.00000E+00 1.50000E+00 6.50000E+00
 -1        76 1.00000E+00 1.50000E+00 7.00000E+00
 -1        77 1.00000E+00 1.50000E+00 7.50000E+00
 -1        78 0.00000E+00 1.50000E+00 5.00000E-01
 -1        79 0.00000E+00 1.50000E+00 1.00000E+00
 -1        80 0.00000E+00 1.50000E+00 1.50000E+00
 -1        81 0.00000E+00 1.50000E+00 2.00000E+00
 -1        82 0.00000E+00 1.50000E+00 2.50000E+00
 -1        83 0.00000E+00 1.50000E+00 3.00000E+00
 -1        84 0.00000E+00 1.50000E+00 3.50000E+00
 -1        85 0.00000E+00 1.50000E+00 4.00000E+00
 -1        86 0.00000E+00 1.50000E+00 4.50000E+00
 -1        87 0.00000E+00 1.50000E+00 5.00000E+00
 -1        88 0.00000E+00 1.50000E+00 5.50000E+00
 -1        89 0.00000E+00 1.50000E+00 6.00000E+00
 -1        90 0.00000E+00 1.50000E+00 6.50000E+00
 -1        91 0.00000E+00 1.50000E+00 7.00000E+00
 -1        92 0.00000E+00 1.50000E+00 7.50000E+00
 -1        93 5.00000E-01 3.75000E-01 0.00000E+00
 -1        94 2.50000E-01 7.50000E-01 0.00000E+00
 -1        95 5.00000E-01 7.50000E-01 0.00000E+00
 -1        96 7.50000E-01 7.50000E-01 0.00000E+00
 -1        97 5.00000E-01 1.12500E+00 0.00000E+00
 -1        98 5.00000E-01 3.75000E-01 8.00000E+00
 -1        99 2.50000E-01 7.50000E-01 8.00000E+00
 -1       100 5.00000E-01 7.50000E-01 8.00000E+00
 -1       101 7.50000E-01 7.50000E-01 8.00000E+00
 -1       102 5.00000E-01 1.12500E+00 8.00000E+00
 -1       103 5.00000E-01 0.00000E+00 5.00000E-01
 -1       104 2.50000E-01 0.00000E+00 1.00000E+00
 -1       105 5.00000E-01 0.00000E+00 1.00000E+00
 -1       106 7.50000E-01 0.00000E+00 1.00000E+00
 -1       107 5.00000E-01 0.00000E+00 1.50000E+00
 -1       108 2.50000E-01 0.00000E+00 2.00000E+00
 -1       109 5.00000E-01 0.00000E+00 2.00000E+00
 -1       110 7.50000E-01 0.00000E+00 2.00000E+00
 -1       111 5.00000E-01 0.00000E+00 2.50000E+00
 -1       112 2.50000E-01 0.00000E+00 3.00000E+00
 -1       113 5.00000E-01 0.00000E+00 3.00000E+00
 -1       114 7.50000E-01 0.00000E+00 3.00000E+00
 -1       115 5.00000E-01 0.00000E+00 3.50000E+00
 -1       116 2.50000E-01 0.00000E+00 4.00000E+00
 -1       117 5.00000E-01 0.00000E+00 4.00000E+00
 -1       118 7.50000E-01 0.00000E+00 4.00000E+00
 -1       119 5.00000E-01 0.00000E+00 4.50000E+00
 -1       120 2.50000E-01 0.00000E+00 5.00000E+00
 -1       121 5.00000E-01 0.00000E+00 5.00000E+00
 -1       122 7.50000E-01 0.00000E+00 5.00000E+00
 -1       123 5.00000E-01 0.00000E+00 5.50000E+00
 -1       124 2.50000E-01 0.00000E+00 6.00000E+00
 -1       125 5.00000E-01 0.00000E+00 6.00000E+00
 -1       126 7.50000E-01 0.00000E+00 6.00000E+00
 -1       127 5.00000E-01 0.00000E+00 6.50000E+00
 -1       128 2.50000E-01 0.00000E+00 7.00000E+00
 -1       129 5.00000E-01 0.00000E+00 7.00000E+00
 -1       130 7.50000E-01 0.00000E+00 7.00000E+00
 -1       131 5.00000E-01 0.00000E+00 7.50000E+00
 -1       132 1.00000E+00 7.50000E-01 5.00000E-01
 -1       133 1.00000E+00 3.75000E-01 1.00000E+00
 -1       134 1.00000E+00 7.50000E-01 1.00000E+00
 -1       135 1.00000E+00 1.12500E+00 1.00000E+00
 -1       136 1.00000E+00 7.50000E-01 1.50000E+00
 -1       137 1.00000E+00 3.75000E-01 2.00000E+00
 -1       138 1.00000E+00 7.50000E-01 2.00000E+00
 -1       139 1.00000E+00 1.12500E+00 2.00000E+00
 -1       140 1.00000E+00 7.50000E-01 2.50000E+00
 -1       141 1.00000E+00 3.75000E-01 3.00000E+00
 -1       142 1.00000E+00 7.50000E-01 3.00000E+00
 -1       143 1.00000E+00 1.12500E+00 3.00000E+00
 -1       144 1.00000E+00 7.50000E-01 3.50000E+00
 -1       145 1.00000E+00 3.75000E-01 4.00000E+00
 -1       146 1.00000E+00 7.50000E-01 4.00000E+00
 -1       147 1.00000E+00 1.12500E+00 4.00000E+00
 -1       148 1.00000E+00 7.50000E-01 4.50000E+00
 -1       149 1.00000E+00 3.75000E-01 5.00000E+00
 -1       150 1.00000E+00 7.50000E-01 5.00000E+00
 -1       151 1.00000E+00 1.12500E+00 5.00000E+00
 -1       152 1.00000E+00 7.50000E-01 5.50000E+00
 -1       153 1.00000E+00 3.75000E-01 6.00000E+00
 -1       154 1.00000E+00 7.50000E-01 6.00000E+00
 -1       155 1.00000E+00 1.12500E+00 6.00000E+00
 -1       156 1.00000E+00 7.50000E-01 6.50000E+00
 -1       157 1.00000E+00 3.75000E-01 7.00000E+00
 -1       158 1.00000E+00 7.50000E-01 7.00000E+00
 -1       159 1.00000E+00 1.12500E+00 7.00000E+00
 -1       160 1.00000E+00 7.50000E-01 7.50000E+00
 -1       161 5.00000E-01 1.50000E+00 5.00000E-01
 -1       162 7.50000E-01 1.50000E+00 1.00000E+00
 -1       163 5.00000E-01 1.50000E+00 1.00000E+00
 -1       164 2.50000E-01 1.50000E+00 1.00000E+00
 -1       165 5.00000E-01 1.50000E+00 1.50000E+00
 -1       166 7.50000E-01 1.50000E+00 2.00000E+00
 -1       167 5.00000E-01 1.50000E+00 2.00000E+00
 -1       168 2.50000E-01 1.50000E+00 2.00000E+00
 -1       169 5.00000E-01 1.50000E+00 2.50000E+00
 -1       170 7.50000E-01 1.50000E+00 3.00000E+00
 -1       171 5.00000E-01 1.50000E+00 3.00000E+00
 -1       172 2.50000E-01 1.50000E+00 3.00000E+00
 -1       173 5.00000E-01 1.50000E+00 3.50000E+00
 -1       174 7.50000E-01 1.50000E+00 4.00000E+00
 -1       175 5.00000E-01 1.50000E+00 4.00000E+00
 -1       176 2.50000E-01 1.50000E+00 4.00000E+00
 -1       177 5.00000E-01 1.50000E+00 4.50000E+00
 -1       178 7.50000E-01 1.50000E+00 5.00000E+00
 -1       179 5.00000E-01 1.50000E+00 5.00000E+00
 -1       180 2.50000E-01 1.50000E+00 5.00000E+00
 -1       181 5.00000E-01 1.50000E+00 5.50000E+00
 -1       182 7.50000E-01 1.50000E+00 6.00000E+00
 -1       183 5.00000E-01 1.50000E+00 6.00000E+00
 -1       184 2.50000E-01 1.50000E+00 6.00000E+00
 -1       185 5.00000E-01 1.50000E+00 6.50000E+00
 -1       186 7.50000E-01 1.50000E+00 7.00000E+00
 -1       187 5.00000E-01 1.50000E+00 7.00000E+00
 -1       188 2.50000E-01 1.50000E+00 7.00000E+00
 -1       189 5.00000E-01 1.50000E+00 7.50000E+00
 -1       190 0.00000E+00 7.50000E-01 5.00000E-01
 -1       191 0.00000E+00 1.12500E+00 1.00000E+00
 -1       192 0.00000E+00 7.50000E-01 1.00000E+00
 -1       193 0.00000E+00 3.75000E-01 1.00000E+00
 -1       194 0.00000E+00 7.50000E-01 1.50000E+00
 -1       195 0.00000E+00 1.12500E+00 2.00000E+00
 -1       196 0.00000E+00 7.50000E-01 2.00000E+00
 -1       197 0.00000E+00 3.75000E-01 2.00000E+00
 -1       198 0.00000E+00 7.50000E-01 2.50000E+00
 -1       199 0.00000E+00 1.12500E+00 3.00000E+00
 -1       200 0.00000E+00 7.50000E-01 3.00000E+00
 -1       201 0.00000E+00 3.75000E-01 3.00000E+00
 -1       202 0.00000E+00 7.50000E-01 3.50000E+00
 -1       203 0.00000E+00 1.12500E+00 4.00000E+00
 -1       204 0.00000E+00 7.50000E-01 4.00000E+00
 -1       205 0.00000E+00 3.75000E-01 4.00000E+00
 -1       206 0.00000E+00 7.50000E-01 4.50000E+00
 -1       207 0.00000E+00 1.12500E+00 5.00000E+00
 -1       208 0.00000E+00 7.50000E-01 5.00000E+00
 -1       209 0.00000E+00 3.75000E-01 5.00000E+00
 -1       210 0.00000E+00 7.50000E-01 5.50000E+00
 -1       211 0.00000E+00 1.12500E+00 6.00000E+00
 -1       212 0.00000E+00 7.50000E-01 6.00000E+00
 -1       213 0.00000E+00 3.75000E-01 6.00000E+00
 -1       214 0.00000E+00 7.50000E-01 6.50000E+00
 -1       215 0.00000E+00 1.12500E+00 7.00000E+00
 -1       216 0.00000E+00 7.50000E-01 7.00000E+00
 -1       217 0.00000E+00 3.75000E-01 7.00000E+00
 -1       218 0.00000E+00 7.50000E-01 7.50000E+00
 -1       219 5.00000E-01 7.50000E-01 5.00000E-01
 -1       220 5.00000E-01 3.75000E-01 1.00000E+00
 -1       221 2.50000E-01 7.50000E-01 1.00000E+00
 -1       222 5.00000E-01 7.50000E-01 1.00000E+00
 -1       223 7.50000E-01 7.50000E-01 1.00000E+00
 -1       224 5.00000E-01 1.12500E+00 1.00000E+00
 -1       225 5.00000E-01 7.50000E-01 1.50000E+00
 -1       226 5.00000E-01 3.75000E-01 2.00000E+00
 -1       227 2.50000E-01 7.50000E-01 2.00000E+00
 -1       228 5.00000E-01 7.50000E-01 2.00000E+00
 -1       229 7.50000E-01 7.50000E-01 2.00000E+00
 -1       230 5.00000E-01 1.12500E+00 2.00000E+00
 -1       231 5.00000E-01 7.50000E-01 2.50000E+00
 -1       232 5.00000E-01 3.75000E-01 3.00000E+00
 -1       233 2.50000E-01 7.50000E-01 3.00000E+00
 -1       234 5.00000E-01 7.50000E-01 3.00000E+00
 -1       235 7.50000E-01 7.50000E-01 3.00000E+00
 -1       236 5.00000E-01 1.12500E+00 3.00000E+00
 -1       237 5.00000E-01 7.50000E-01 3.50000E+00
 -1       238 5.00000E-01 3.75000E-01 4.00000E+00
 -1       239 2.50000E-01 7.50000E-01 4.00000E+00
 -1       240 5.00000E-01 7.50000E-01 4.00000E+00
 -1       241 7.50000E-01 7.50000E-01 4.00000E+00
 -1       242 5.00000E-01 1.12500E+00 4.00000E+00
 -1       243 5.00000E-01 7.50000E-01 4.50000E+00
 -1       244 5.00000E-01 3.75000E-01 5.00000E+00
 -1       245 2.50000E-01 7.50000E-01 5.00000E+00
 -1       246 5.00000E-01 7.50000E-01 5.00000E+00
 -1       247 7.50000E-01 7.50000E-01 5.00000E+00
 -1       248 5.00000E-01 1.12500E+00 5.00000E+00
 -1       249 5.00000E-01 7.50000E-01 5.50000E+00
 -1       250 5.00000E-01 3.75000E-01 6.00000E+00
 -1       251 2.50000E-01 7.50000E-01 6.00000E+00
 -1       252 5.00000E-01 7.50000E-01 6.00000E+00
 -1       253 7.50000E-01 7.50000E-01 6.00000E+00
 -1       254 5.00000E-01 1.12500E+00 6.00000E+00
 -1       255 5.00000E-01 7.50000E-01 6.50000E+00
 -1       256 5.00000E-01 3.75000E-01 7.00000E+00
 -1       257 2.50000E-01 7.50000E-01 7.00000E+00
 -1       258 5.00000E-01 7.50000E-01 7.00000E+00
 -1       259 7.50000E-01 7.50000E-01 7.00000E+00
 -1       260 5.00000E-01 1.12500E+00 7.00000E+00
 -1       261 5.00000E-01 7.50000E-01 7.50000E+00
 -3
    3C                            32                                     1
 -1         1    4    0    1
 -2         1        10        95        19        61       105       222       192         9        93
 -2        94        20        62       103       219       190       104       220       221       193
 -1         2    4    0    1
 -2        10         2        13        95       105        34       134       222        11        12
 -2        96        93       103        33       132       219       106       133       223       220
 -1         3    4    0    1
 -2        19        95        16         4       192       222       163        79        94        97
 -2        17        18       190       219       161        78       221       224       164       191
 -1         4    4    0    1
 -2        95        13         3        16       222       134        64       163        96        14
 -2        15        97       219       132        63       161       223       135       162       224
 -1         5    4    0    1
 -2        61       105       222       192        59       109       228       196       104       220
 -2       221       193        60       107       225       194       108       226       227       197
 -1         6    4    0    1
 -2       105        34       134       222       109        36       138       228       106       133
 -2       223       220       107        35       136       225       110       137       229       226
 -1         7    4    0    1
 -2       192       222       163        79       196       228       167        81       221       224
 -2       164       191       194       225       165        80       227       230       168       195
 -1         8    4    0    1
 -2       222       134        64       163       228       138        66       167       223       135
 -2       162       224       225       136        65       165       229       139       166       230
 -1         9    4    0    1
 -2        59       109       228       196        57       113       234       200       108       226
 -2       227       197        58       111       231       198       112       232       233       201
 -1        10    4    0    1
 -2       109        36       138       228       113        38       142       234       110       137
 -2       229       226       111        37       140       231       114       141       235       232
 -1        11    4    0    1
 -2       196       228       167        81       200       234       171        83       227       230
 -2       168       195       198       231       169        82       233       236       172       199
 -1        12    4    0    1
 -2       228       138        66       167       234       142        68       171       229       139
 -2       166       230       231       140        67       169       235       143       170       236
 -1        13    4    0    1
 -2        57       113       234       200        55       117       240       204       112       232
 -2       233       201        56       115       237       202       116       238       239       205
 -1        14    4    0    1
 -2       113        38       142       234       117        40       146       240       114       141
 -2       235       232       115        39       144       237       118       145       241       238
 -1        15    4    0    1
 -2       200       234       171        83       204       240       175        85       233       236
 -2       172       199       202       237       173        84       239       242       176       203
 -1        16    4    0    1
 -2       234       142        68       171       240       146        70       175       235       143
 -2       170       236       237       144        69       173       241       147       174       242
 -1        17    4    0    1
 -2        55       117       240       204        53       121       246       208       116       238
 -2       239       205        54       119       243       206       120       244       245       209
 -1        18    4    0    1
 -2       117        40       146       240       121        42       150       246       118       145
 -2       241       238       119        41       148       243       122       149       247       244
 -1        19    4    0    1
 -2       204       240       175        85       208       246       179        87       239       242
 -2       176       203       206       243       177        86       245       248       180       207
 -1        20    4    0    1
 -2       240       146        70       175       246       150        72       179       241       147
 -2       174       242       243       148        71       177       247       151       178       248
 -1        21    4    0    1
 -2        53       121       246       208        51       125       252       212       120       244
 -2       245       209        52       123       249       210       124       250       251       213
 -1        22    4    0    1
 -2       121        42       150       246       125        44       154       252       122       149
 -2       247       244       123        43       152       249       126       153       253       250
 -1        23    4    0    1
 -2       208       246       179        87       212       252       183        89       245       248
 -2       180       207       210       249       181        88       251       254       184       211
 -1        24    4    0    1
 -2       246       150        72       179       252       154        74       183       247       151
 -2       178       248       249       152        73       181       253       155       182       254
 -1        25    4    0    1
 -2        51       125       252       212        49       129       258       216       124       250
 -2       251       213        50       127       255       214       128       256       257       217
 -1        26    4    0    1
 -2       125        44       154       252       129        46       158       258       126       153
 -2       253       250       127        45       156       255       130       157       259       256
 -1        27    4    0    1
 -2       212       252       183        89       216       258       187        91       251       254
 -2       184       211       214       255       185        90       257       260       188       215
 -1        28    4    0    1
 -2       252       154        74       183       258       158        76       187       253       155
 -2       182       254       255       156        75       185       259       159       186       260
 -1        29    4    0    1
 -2        49       129       258       216         5        22       100        31       128       256
 -2       257       217        48       131       261       218        21        98        99        32
 -1        30    4    0    1
 -2       129        46       158       258        22         6        25       100       130       157
 -2       259       256       131        47       160       261        23        24       101        98
 -1        31    4    0    1
 -2       216       258       187        91        31       100        28         8       257       260
 -2       188       215       218       261       189        92        99       102        29        30
 -1        32    4    0    1
 -2       258       158        76       187       100        25         7        28       259       159
 -2       186       260       261       160        77       189       101        26        27       102
 -3
    1PSTEP                         1           1           1          
    1PGM                1.000000E+00                                  
    1PGK                6.770787E+09                                  
    1PHID                         -1                                  
    1PSUBC                         0                                  
    1PMODE                         1                                  
  100CL  101 13096.03106         261                     2    1MODAL      1
 -4  DISP        4    1
 -5  D1          1    2    1    0
 -5  D2          1    2    2    0
 -5  D3          1    2    3    0
 -5  ALL         1    2    0    0    1ALL
 -1         1 0.00000E+00 0.00000E+00 0.00000E+00
 -1         2 0.00000E+00 0.00000E+00 0.00000E+00
 -1         3 0.00000E+00 0.00000E+00 0.00000E+00
 -1         4 0.00000E+00 0.00000E+00 0.00000E+00
 -1         5 6.50937E+03 8.56376E-02 5.55963E+02
 -1         6 6.50937E+03-8.56376E-02-5.55963E+02
 -1         7 6.50937E+03 8.56376E-02-5.55963E+02
 -1         8 6.50937E+03-8.56376E-02 5.55963E+02
 -1         9 0.00000E+00 0.00000E+00 0.00000E+00
 -1        10 0.00000E+00 0.00000E+00 0.00000E+00
 -1        11 0.00000E+00 0.00000E+00 0.00000E+00
 -1        12 0.00000E+00 0.00000E+00 0.00000E+00
 -1        13 0.00000E+00 0.00000E+00 0.00000E+00
 -1        14 0.00000E+00 0.00000E+00 0.00000E+00
 -1        15 0.00000E+00 0.00000E+00 0.00000E+00
 -1        16 0.00000E+00 0.00000E+00 0.00000E+00
 -1        17 0.00000E+00 0.00000E+00 0.00000E+00
 -1        18 0.00000E+00 0.00000E+00 0.00000E+00
 -1        19 0.00000E+00 0.00000E+00 0.00000E+00
 -1        20 0.00000E+00 0.00000E+00 0.00000E+00
 -1        21 6.50936E+03 2.58666E-02 2.77952E+02
 -1        22 6.50931E+03 1.77647E-09 2.45002E-10
 -1        23 6.50936E+03-2.58666E-02-2.77952E+02
 -1        24 6.50948E+03-7.76070E-02-5.56058E+02
 -1        25 6.50959E+03 1.74418E-09-5.56109E+02
 -1        26 6.50948E+03 7.76070E-02-5.56058E+02
 -1        27 6.50936E+03 2.58666E-02-2.77952E+02
 -1        28 6.50931E+03 1.77192E-09-2.69750E-10
 -1        29 6.50936E+03-2.58666E-02 2.77952E+02
 -1        30 6.50948E+03-7.76070E-02 5.56058E+02
 -1        31 6.50959E+03 1.79512E-09 5.56109E+02
 -1        32 6.50948E+03 7.76070E-02 5.56058E+02
 -1        33 4.33237E+01-3.13398E+01-7.84601E+01
 -1        34 1.57954E+02-2.95062E+01-1.56649E+02
 -1        35 3.61356E+02-3.00866E+01-2.27101E+02
 -1        36 6.26022E+02-2.61792E+01-2.90133E+02
 -1        37 9.53975E+02-2.32576E+01-3.45065E+02
 -1        38 1.33068E+03-1.99051E+01-3.93347E+02
 -1        39 1.75309E+03-1.68961E+01-4.34150E+02
 -1        40 2.21170E+03-1.38129E+01-4.68184E+02
 -1        41 2.70107E+03-1.10084E+01-4.95563E+02
 -1        42 3.21392E+03-8.39152E+00-5.16979E+02
 -1        43 3.74484E+03-6.08036E+00-5.32823E+02
 -1        44 4.28833E+03-4.06017E+00-5.43853E+02
 -1        45 4.83984E+03-2.41732E+00-5.50746E+02
 -1        46 5.39563E+03-1.17232E+00-5.54434E+02
 -1        47 5.95269E+03-4.21470E-01-5.55814E+02
 -1        48 5.95269E+03 4.21470E-01 5.55814E+02
 -1        49 5.39563E+03 1.17232E+00 5.54434E+02
 -1        50 4.83984E+03 2.41732E+00 5.50746E+02
 -1        51 4.28833E+03 4.06017E+00 5.43853E+02
 -1        52 3.74484E+03 6.08036E+00 5.32823E+02
 -1        53 3.21392E+03 8.39152E+00 5.16979E+02
 -1        54 2.70107E+03 1.10084E+01 4.95563E+02
 -1        55 2.21170E+03 1.38129E+01 4.68184E+02
 -1        56 1.75309E+03 1.68961E+01 4.34150E+02
 -1        57 1.33068E+03 1.99051E+01 3.93347E+02
 -1        58 9.53975E+02 2.32576E+01 3.45065E+02
 -1        59 6.26022E+02 2.61792E+01 2.90133E+02
 -1        60 3.61356E+02 3.00866E+01 2.27101E+02
 -1        61 1.57954E+02 2.95062E+01 1.56649E+02
 -1        62 4.33237E+01 3.13398E+01 7.84601E+01
 -1        63 4.33237E+01 3.13398E+01-7.84601E+01
 -1        64 1.57954E+02 2.95062E+01-1.56649E+02
 -1        65 3.61356E+02 3.00866E+01-2.27101E+02
 -1        66 6.26022E+02 2.61792E+01-2.90133E+02
 -1        67 9.53975E+02 2.32576E+01-3.45065E+02
 -1        68 1.33068E+03 1.99051E+01-3.93347E+02
 -1        69 1.75309E+03 1.68961E+01-4.34150E+02
 -1        70 2.21170E+03 1.38129E+01-4.68184E+02
 -1        71 2.70107E+03 1.10084E+01-4.95563E+02
 -1        72 3.21392E+03 8.39152E+00-5.16979E+02
 -1        73 3.74484E+03 6.08036E+00-5.32823E+02
 -1        74 4.28833E+03 4.06017E+00-5.43853E+02
 -1        75 4.83984E+03 2.41732E+00-5.50746E+02
 -1        76 5.39563E+03 1.17232E+00-5.54434E+02
 -1        77 5.95269E+03 4.21470E-01-5.55814E+02
 -1        78 4.33237E+01-3.13398E+01 7.84601E+01
 -1        79 1.57954E+02-2.95062E+01 1.56649E+02
 -1        80 3.61356E+02-3.00866E+01 2.27101E+02
 -1        81 6.26022E+02-2.61792E+01 2.90133E+02
 -1        82 9.53975E+02-2.32576E+01 3.45065E+02
 -1        83 1.33068E+03-1.99051E+01 3.93347E+02
 -1        84 1.75309E+03-1.68961E+01 4.34150E+02
 -1        85 2.21170E+03-1.38129E+01 4.68184E+02
 -1        86 2.70107E+03-1.10084E+01 4.95563E+02
 -1        87 3.21392E+03-8.39152E+00 5.16979E+02
 -1        88 3.74484E+03-6.08036E+00 5.32823E+02
 -1        89 4.28833E+03-4.06017E+00 5.43853E+02
 -1        90 4.83984E+03-2.41732E+00 5.50746E+02
 -1        91 5.39563E+03-1.17232E+00 5.54434E+02
 -1        92 5.95269E+03-4.21470E-01 5.55814E+02
 -1        93 0.00000E+00 0.00000E+00 0.00000E+00
 -1        94 0.00000E+00 0.00000E+00 0.00000E+00
 -1        95 0.00000E+00 0.00000E+00 0.00000E+00
 -1        96 0.00000E+00 0.00000E+00 0.00000E+00
 -1        97 0.00000E+00 0.00000E+00 0.00000E+00
 -1        98 6.50942E+03 1.76874E-09 1.12586E-10
 -1        99 6.50961E+03 1.77761E-09 2.78042E+02
 -1       100 6.50958E+03 1.76829E-09-1.88223E-11
 -1       101 6.50961E+03 1.75487E-09-2.78042E+02
 -1       102 6.50942E+03 1.77397E-09-1.41640E-10
 -1       103 2.63519E+01 1.42606E-11 2.31708E-11
 -1       104 1.51698E+02 1.50721E+01 7.76001E+01
 -1       105 1.52860E+02 3.97051E-11 4.97664E-11
 -1       106 1.51698E+02-1.50721E+01-7.76001E+01
 -1       107 3.49578E+02 8.32188E-11 7.27169E-11
 -1       108 6.20937E+02 1.30230E+01 1.43555E+02
 -1       109 6.19797E+02 1.42563E-10 9.59233E-11
 -1       110 6.20937E+02-1.30230E+01-1.43555E+02
 -1       111 9.45468E+02 2.16289E-10 1.17538E-10
 -1       112 1.32608E+03 9.97032E+00 1.95458E+02
 -1       113 1.32495E+03 3.06898E-10 1.38314E-10
 -1       114 1.32608E+03-9.97032E+00-1.95458E+02
 -1       115 1.74722E+03 4.07340E-10 1.55453E-10
 -1       116 2.20845E+03 6.89829E+00 2.32917E+02
 -1       117 2.20745E+03 5.23869E-10 1.73245E-10
 -1       118 2.20845E+03-6.89829E+00-2.32917E+02
 -1       119 2.69728E+03 6.49607E-10 1.88223E-10
 -1       120 3.21189E+03 4.19293E+00 2.57522E+02
 -1       121 3.21124E+03 7.88987E-10 2.01702E-10
 -1       122 3.21189E+03-4.19293E+00-2.57522E+02
 -1       123 3.74277E+03 9.36325E-10 2.20531E-10
 -1       124 4.28736E+03 2.02335E+00 2.71199E+02
 -1       125 4.28701E+03 1.09935E-09 2.25633E-10
 -1       126 4.28736E+03-2.02335E+00-2.71199E+02
 -1       127 4.83900E+03 1.25806E-09 2.32987E-10
 -1       128 5.39536E+03 5.81268E-01 2.76821E+02
 -1       129 5.39522E+03 1.43018E-09 2.34799E-10
 -1       130 5.39536E+03-5.81268E-01-2.76821E+02
 -1       131 5.95255E+03 1.59480E-09 2.38522E-10
 -1       132 6.19922E+01 3.65219E-12-7.71509E+01
 -1       133 1.76750E+02-1.39396E+01-1.56808E+02
 -1       134 1.81304E+02 3.05960E-11-1.58421E+02
 -1       135 1.76750E+02 1.39396E+01-1.56808E+02
 -1       136 3.83338E+02 7.17364E-11-2.27341E+02
 -1       137 6.40826E+02-1.32347E+01-2.91193E+02
 -1       138 6.46211E+02 1.30967E-10-2.90367E+02
 -1       139 6.40826E+02 1.32347E+01-2.91193E+02
 -1       140 9.71260E+02 2.05262E-10-3.45441E+02
 -1       141 1.34206E+03-9.91481E+00-3.94059E+02
 -1       142 1.34582E+03 2.95586E-10-3.93770E+02
 -1       143 1.34206E+03 9.91481E+00-3.94059E+02
 -1       144 1.76573E+03 3.97108E-10-4.34508E+02
 -1       145 2.21950E+03-6.92552E+00-4.68930E+02
 -1       146 2.22216E+03 5.12159E-10-4.68508E+02
 -1       147 2.21950E+03 6.92552E+00-4.68930E+02
 -1       148 2.70933E+03 6.36419E-10-4.95881E+02
 -1       149 3.21867E+03-4.20669E+00-5.17578E+02
 -1       150 3.22028E+03 7.73184E-10-5.17264E+02
 -1       151 3.21867E+03 4.20669E+00-5.17578E+02
 -1       152 3.74944E+03 9.19272E-10-5.33076E+02
 -1       153 4.29063E+03-2.04852E+00-5.44309E+02
 -1       154 4.29144E+03 1.07389E-09-5.44061E+02