    1C
    1UModel: beam     Date: 10-Mar-1998                                 
    1UUSER                                                              
    1UDATE              15.december.2018                                
    1UTIME              15:48:26                                        
    1UHOST                                                              
    1UPGM               CalculiX                                        
    1UVERSION           Version 2.15                             
    1UCOMPILETIME       Sa 15. Dez 14:32:01 CET 2018                    
    1UDIR                                                               
    1UDBN                                                               
    1UMAT    1EL                                                        
    2C                           261                                     1
 -1         1 0.00000E+00 0.00000E+00 0.00000E+00
 -1         2 1.00000E+00 0.00000E+00 0.00000E+00
 -1         3 1.00000E+00 1.50000E+00 0.00000E+00
 -1         4 0.00000E+00 1.50000E+00 0.00000E+00
 -1         5 0.00000E+00 0.00000E+00 8.00000E+00
 -1         6 1.00000E+00 0.00000E+00 8.00000E+00
 -1         7 1.00000E+00 1.50000E+00 8.00000E+00
 -1         8 0.00000E+00 1.50000E+00 8.00000E+00
 -1         9 2.50000E-01 0.00000E+00 0.00000E+00
 -1        10 5.00000E-01 0.00000E+00 0.00000E+00
 -1        11 7.50000E-01 0.00000E+00 0.00000E+00
 -1        12 1.00000E+00 3.75000E-01 0.00000E+00
 -1        13 1.00000E+00 7.50000E-01 0.00000E+00
 -1        14 1.00000E+00 1.12500E+00 0.00000E+00
 -1        15 7.50000E-01 1.50000E+00 0.00000E+00
 -1        16 5.00000E-01 1.50000E+00 0.00000E+00
 -1        17 2.50000E-01 1.50000E+00 0.00000E+00
 -1        18 0.00000E+00 1.12500E+00 0.00000E+00
 -1        19 0.00000E+00 7.50000E-01 0.00000E+00
 -1        20 0.00000E+00 3.75000E-01 0.00000E+00
 -1        21 2.50000E-01 0.00000E+00 8.00000E+00
 -1        22 5.00000E-01 0.00000E+00 8.00000E+00
 -1        23 7.50000E-01 0.00000E+00 8.00000E+00
 -1        24 1.00000E+00 3.75000E-01 8.00000E+00
 -1        25 1.00000E+00 7.50000E-01 8.00000E+00
 -1        26 1.00000E+00 1.12500E+00 8.00000E+00
 -1        27 7.50000E-01 1.50000E+00 8.00000E+00
 -1        28 5.00000E-01 1.50000E+00 8.00000E+00
 -1        29 2.50000E-01 1.50000E+00 8.00000E+00
 -1        30 0.00000E+00 1.12500E+00 8.00000E+00
 -1        31 0.00000E+00 7.50000E-01 8.00000E+00
 -1        32 0.00000E+00 3.75000E-01 8.00000E+00
 -1        33 1.00000E+00 0.00000E+00 5.00000E-01
 -1        34 1.00000E+00 0.00000E+00 1.00000E+00
 -1        35 1.00000E+00 0.00000E+00 1.50000E+00
 -1        36 1.00000E+00 0.00000E+00 2.00000E+00
 -1        37 1.00000E+00 0.00000E+00 2.50000E+00
 -1        38 1.00000E+00 0.00000E+00 3.00000E+00
 -1        39 1.00000E+00 0.00000E+00 3.50000E+00
 -1        40 1.00000E+00 0.00000E+00 4.00000E+00
 -1        41 1.00000E+00 0.00000E+00 4.50000E+00
 -1        42 1.00000E+00 0.00000E+00 5.00000E+00
 -1        43 1.00000E+00 0.00000E+00 5.50000E+00
 -1        44 1.00000E+00 0.00000E+00 6.00000E+00
 -1        45 1.00000E+00 0.00000E+00 6.50000E+00
 -1        46 1.00000E+00 0.00000E+00 7.00000E+00
 -1        47 1.00000E+00 0.00000E+00 7.50000E+00
 -1        48 0.00000E+00 0.00000E+00 7.50000E+00
 -1        49 0.00000E+00 0.00000E+00 7.00000E+00
 -1        50 0.00000E+00 0.00000E+00 6.50000E+00
 -1        51 0.00000E+00 0.00000E+00 6.00000E+00
 -1        52 0.00000E+00 0.00000E+00 5.50000E+00
 -1        53 0.00000E+00 0.00000E+00 5.00000E+00
 -1        54 0.00000E+00 0.00000E+00 4.50000E+00
 -1        55 0.00000E+00 0.00000E+00 4.00000E+00
 -1        56 0.00000E+00 0.00000E+00 3.50000E+00
 -1        57 0.00000E+00 0.00000E+00 3.00000E+00
 -1        58 0.00000E+00 0.00000E+00 2.50000E+00
 -1        59 0.00000E+00 0.00000E+00 2.00000E+00
 -1        60 0.00000E+00 0.00000E+00 1.50000E+00
 -1        61 0.00000E+00 0.00000E+00 1.00000E+00
 -1        62 0.00000E+00 0.00000E+00 5.00000E-01
 -1        63 1.00000E+00 1.50000E+00 5.00000E-01
 -1        64 1.00000E+00 1.50000E+00 1.00000E+00
 -1        65 1.00000E+00 1.50000E+00 1.50000E+00
 -1        66 1.00000E+00 1.50000E+00 2.00000E+00
 -1        67 1.00000E+00 1.50000E+00 2.50000E+00
 -1        68 1.00000E+00 1.50000E+00 3.00000E+00
 -1        69 1.00000E+00 1.50000E+00 3.50000E+00
 -1        70 1.00000E+00 1.50000E+00 4.00000E+00
 -1        71 1.00000E+00 1.50000E+00 4.50000E+00
 -1        72 1.00000E+00 1.50000E+00 5.00000E+00
 -1        73 1.00000E+00 1.50000E+00 5.50000E+00
 -1        74 1.00000E+00 1.50000E+00 6.00000E+00
 -1        75 1.00000E+00 1.50000E+00 6.50000E+00
 -1        76 1.00000E+00 1.50000E+00 7.00000E+00
 -1        77 1.00000E+00 1.50000E+00 7.50000E+00
 -1        78 0.00000E+00 1.50000E+00 5.00000E-01
 -1        79 0.00000E+00 1.50000E+00 1.00000E+00
 -1        80 0.00000E+00 1.50000E+00 1.50000E+00
 -1        81 0.00000E+00 1.50000E+00 2.00000E+00
 -1        82 0.00000E+00 1.50000E+00 2.50000E+00
 -1        83 0.00000E+00 1.50000E+00 3.00000E+00
 -1        84 0.00000E+00 1.50000E+00 3.50000E+00
 -1        85 0.00000E+00 1.50000E+00 4.00000E+00
 -1        86 0.00000E+00 1.50000E+00 4.50000E+00
 -1        87 0.00000E+00 1.50000E+00 5.00000E+00
 -1        88 0.00000E+00 1.50000E+00 5.50000E+00
 -1        89 0.00000E+00 1.50000E+00 6.00000E+00
 -1        90 0.00000E+00 1.50000E+00 6.50000E+00
 -1        91 0.00000E+00 1.50000E+00 7.00000E+00
 -1        92 0.00000E+00 1.50000E+00 7.50000E+00
 -1        93 5.00000E-01 3.75000E-01 0.00000E+00
 -1        94 2.50000E-01 7.50000E-01 0.00000E+00
 -1        95 5.00000E-01 7.50000E-01 0.00000E+00
 -1        96 7.50000E-01 7.50000E-01 0.00000E+00
 -1        97 5.00000E-01 1.12500E+00 0.00000E+00
 -1        98 5.00000E-01 3.75000E-01 8.00000E+00
 -1        99 2.50000E-01 7.50000E-01 8.00000E+00
 -1       100 5.00000E-01 7.50000E-01 8.00000E+00
 -1       101 7.50000E-01 7.50000E-01 8.00000E+00
 -1       102 5.00000E-01 1.12500E+00 8.00000E+00
 -1       103 5.00000E-01 0.00000E+00 5.00000E-01
 -1       104 2.50000E-01 0.00000E+00 1.00000E+00
 -1       105 5.00000E-01 0.00000E+00 1.00000E+00
 -1       106 7.50000E-01 0.00000E+00 1.00000E+00
 -1       107 5.00000E-01 0.00000E+00 1.50000E+00
 -1       108 2.50000E-01 0.00000E+00 2.00000E+00
 -1       109 5.00000E-01 0.00000E+00 2.00000E+00
 -1       110 7.50000E-01 0.00000E+00 2.00000E+00
 -1       111 5.00000E-01 0.00000E+00 2.50000E+00
 -1       112 2.50000E-01 0.00000E+00 3.00000E+00
 -1       113 5.00000E-01 0.00000E+00 3.00000E+00
 -1       114 7.50000E-01 0.00000E+00 3.00000E+00
 -1       115 5.00000E-01 0.00000E+00 3.50000E+00
 -1       116 2.50000E-01 0.00000E+00 4.00000E+00
 -1       117 5.00000E-01 0.00000E+00 4.00000E+00
 -1       118 7.50000E-01 0.00000E+00 4.00000E+00
 -1       119 5.00000E-01 0.00000E+00 4.50000E+00
 -1       120 2.50000E-01 0.00000E+00 5.00000E+00
 -1       121 5.00000E-01 0.00000E+00 5.00000E+00
 -1       122 7.50000E-01 0.00000E+00 5.00000E+00
 -1       123 5.00000E-01 0.00000E+00 5.50000E+00
 -1       124 2.50000E-01 0.00000E+00 6.00000E+00
 -1       125 5.00000E-01 0.00000E+00 6.00000E+00
 -1       126 7.50000E-01 0.00000E+00 6.00000E+00
 -1       127 5.00000E-01 0.00000E+00 6.50000E+00
 -1       128 2.50000E-01 0.00000E+00 7.00000E+00
 -1       129 5.00000E-01 0.00000E+00 7.00000E+00
 -1       130 7.50000E-01 0.00000E+00 7.00000E+00
 -1       131 5.00000E-01 0.00000E+00 7.50000E+00
 -1       132 1.00000E+00 7.50000E-01 5.00000E-01
 -1       133 1.00000E+00 3.75000E-01 1.00000E+00
 -1       134 1.00000E+00 7.50000E-01 1.00000E+00
 -1       135 1.00000E+00 1.12500E+00 1.00000E+00
 -1       136 1.00000E+00 7.50000E-01 1.50000E+00
 -1       137 1.00000E+00 3.75000E-01 2.00000E+00
 -1       138 1.00000E+00 7.50000E-01 2.00000E+00
 -1       139 1.00000E+00 1.12500E+00 2.00000E+00
 -1       140 1.00000E+00 7.50000E-01 2.50000E+00
 -1       141 1.00000E+00 3.75000E-01 3.00000E+00
 -1       142 1.00000E+00 7.50000E-01 3.00000E+00
 -1       143 1.00000E+00 1.12500E+00 3.00000E+00
 -1       144 1.00000E+00 7.50000E-01 3.50000E+00
 -1       145 1.00000E+00 3.75000E-01 4.00000E+00
 -1       146 1.00000E+00 7.50000E-01 4.00000E+00
 -1       147 1.00000E+00 1.12500E+00 4.00000E+00
 -1       148 1.00000E+00 7.50000E-01 4.50000E+00
 -1       149 1.00000E+00 3.75000E-01 5.00000E+00
 -1       150 1.00000E+00 7.50000E-01 5.00000E+00
 -1       151 1.00000E+00 1.12500E+00 5.00000E+00
 -1       152 1.00000E+00 7.50000E-01 5.50000E+00
 -1       153 1.00000E+00 3.75000E-01 6.00000E+00
 -1       154 1.00000E+00 7.50000E-01 6.00000E+00
 -1       155 1.00000E+00 1.12500E+00 6.00000E+00
 -1       156 1.00000E+00 7.50000E-01 6.50000E+00
 -1       157 1.00000E+00 3.75000E-01 7.00000E+00
 -1       158 1.00000E+00 7.50000E-01 7.00000E+00
 -1       159 1.00000E+00 1.12500E+00 7.00000E+00
 -1       160 1.00000E+00 7.50000E-01 7.50000E+00
 -1       161 5.00000E-01 1.50000E+00 5.00000E-01
 -1       162 7.50000E-01 1.50000E+00 1.00000E+00
 -1       163 5.00000E-01 1.50000E+00 1.00000E+00
 -1       164 2.50000E-01 1.50000E+00 1.00000E+00
 -1       165 5.00000E-01 1.50000E+00 1.50000E+00
 -1       166 7.50000E-01 1.50000E+00 2.00000E+00
 -1       167 5.00000E-01 1.50000E+00 2.00000E+00
 -1       168 2.50000E-01 1.50000E+00 2.00000E+00
 -1       169 5.00000E-01 1.50000E+00 2.50000E+00
 -1       170 7.50000E-01 1.50000E+00 3.00000E+00
 -1       171 5.00000E-01 1.50000E+00 3.00000E+00
 -1       172 2.50000E-01 1.50000E+00 3.00000E+00
 -1       173 5.00000E-01 1.50000E+00 3.50000E+00
 -1       174 7.50000E-01 1.50000E+00 4.00000E+00
 -1       175 5.00000E-01 1.50000E+00 4.00000E+00
 -1       176 2.50000E-01 1.50000E+00 4.00000E+00
 -1       177 5.00000E-01 1.50000E+00 4.50000E+00
 -1       178 7.50000E-01 1.50000E+00 5.00000E+00
 -1       179 5.00000E-01 1.50000E+00 5.00000E+00
 -1       180 2.50000E-01 1.50000E+00 5.00000E+00
 -1       181 5.00000E-01 1.50000E+00 5.50000E+00
 -1       182 7.50000E-01 1.50000E+00 6.00000E+00
 -1       183 5.00000E-01 1.50000E+00 6.00000E+00
 -1       184 2.50000E-01 1.50000E+00 6.00000E+00
 -1       185 5.00000E-01 1.50000E+00 6.50000E+00
 -1       186 7.50000E-01 1.50000E+00 7.00000E+00
 -1       187 5.00000E-01 1.50000E+00 7.00000E+00
 -1       188 2.50000E-01 1.50000E+00 7.00000E+00
 -1       189 5.00000E-01 1.50000E+00 7.50000E+00
 -1       190 0.00000E+00 7.50000E-01 5.00000E-01
 -1       191 0.00000E+00 1.12500E+00 1.00000E+00
 -1       192 0.00000E+00 7.50000E-01 1.00000E+00
 -1       193 0.00000E+00 3.75000E-01 1.00000E+00
 -1       194 0.00000E+00 7.50000E-01 1.50000E+00
 -1       195 0.00000E+00 1.12500E+00 2.00000E+00
 -1       196 0.00000E+00 7.50000E-01 2.00000E+00
 -1       197 0.00000E+00 3.75000E-01 2.00000E+00
 -1       198 0.00000E+00 7.50000E-01 2.50000E+00
 -1       199 0.00000E+00 1.12500E+00 3.00000E+00
 -1       200 0.00000E+00 7.50000E-01 3.00000E+00
 -1       201 0.00000E+00 3.75000E-01 3.00000E+00
 -1       202 0.00000E+00 7.50000E-01 3.50000E+00
 -1       203 0.00000E+00 1.12500E+00 4.00000E+00
 -1       204 0.00000E+00 7.50000E-01 4.00000E+00
 -1       205 0.00000E+00 3.75000E-01 4.00000E+00
 -1       206 0.00000E+00 7.50000E-01 4.50000E+00
 -1       207 0.00000E+00 1.12500E+00 5.00000E+00
 -1       208 0.00000E+00 7.50000E-01 5.00000E+00
 -1       209 0.00000E+00 3.75000E-01 5.00000E+00
 -1       210 0.00000E+00 7.50000E-01 5.50000E+00
 -1       211 0.00000E+00 1.12500E+00 6.00000E+00
 -1       212 0.00000E+00 7.50000E-01 6.00000E+00
 -1       213 0.00000E+00 3.75000E-01 6.00000E+00
 -1       214 0.00000E+00 7.50000E-01 6.50000E+00
 -1       215 0.00000E+00 1.12500E+00 7.00000E+00
 -1       216 0.00000E+00 7.50000E-01 7.00000E+00
 -1       217 0.00000E+00 3.75000E-01 7.00000E+00
 -1       218 0.00000E+00 7.50000E-01 7.50000E+00
 -1       219 5.00000E-01 7.50000E-01 5.00000E-01
 -1       220 5.00000E-01 3.75000E-01 1.00000E+00
 -1       221 2.50000E-01 7.50000E-01 1.00000E+00
 -1       222 5.00000E-01 7.50000E-01 1.00000E+00
 -1       223 7.50000E-01 7.50000E-01 1.00000E+00
 -1       224 5.00000E-01 1.12500E+00 1.00000E+00
 -1       225 5.00000E-01 7.50000E-01 1.50000E+00
 -1       226 5.00000E-01 3.75000E-01 2.00000E+00
 -1       227 2.50000E-01 7.50000E-01 2.00000E+00
 -1       228 5.00000E-01 7.50000E-01 2.00000E+00
 -1       229 7.50000E-01 7.50000E-01 2.00000E+00
 -1       230 5.00000E-01 1.12500E+00 2.00000E+00
 -1       231 5.00000E-01 7.50000E-01 2.50000E+00
 -1       232 5.00000E-01 3.75000E-01 3.00000E+00
 -1       233 2.50000E-01 7.50000E-01 3.00000E+00
 -1       234 5.00000E-01 7.50000E-01 3.00000E+00
 -1       235 7.50000E-01 7.50000E-01 3.00000E+00
 -1       236 5.00000E-01 1.12500E+00 3.00000E+00
 -1       237 5.00000E-01 7.50000E-01 3.50000E+00
 -1       238 5.00000E-01 3.75000E-01 4.00000E+00
 -1       239 2.50000E-01 7.50000E-01 4.00000E+00
 -1       240 5.00000E-01 7.50000E-01 4.00000E+00
 -1       241 7.50000E-01 7.50000E-01 4.00000E+00
 -1       242 5.00000E-01 1.12500E+00 4.00000E+00
 -1       243 5.00000E-01 7.50000E-01 4.50000E+00
 -1       244 5.00000E-01 3.75000E-01 5.00000E+00
 -1       245 2.50000E-01 7.50000E-01 5.00000E+00
 -1       246 5.00000E-01 7.50000E-01 5.00000E+00
 -1       247 7.50000E-01 7.50000E-01 5.00000E+00
 -1       248 5.00000E-01 1.12500E+00 5.00000E+00
 -1       249 5.00000E-01 7.50000E-01 5.50000E+00
 -1       250 5.00000E-01 3.75000E-01 6.00000E+00
 -1       251 2.50000E-01 7.50000E-01 6.00000E+00
 -1       252 5.00000E-01 7.50000E-01 6.00000E+00
 -1       253 7.50000E-01 7.50000E-01 6.00000E+00
 -1       254 5.00000E-01 1.12500E+00 6.00000E+00
 -1       255 5.00000E-01 7.50000E-01 6.50000E+00
 -1       256 5.00000E-01 3.75000E-01 7.00000E+00
 -1       257 2.50000E-01 7.50000E-01 7.00000E+00
 -1       258 5.00000E-01 7.50000E-01 7.00000E+00
 -1       259 7.50000E-01 7.50000E-01 7.00000E+00
 -1       260 5.00000E-01 1.12500E+00 7.00000E+00
 -1       261 5.00000E-01 7.50000E-01 7.50000E+00
 -3
    3C                            32                                     1
 -1         1    4    0    1
 -2         1        10        95        19        61       105       222       192         9        93
 -2        94        20        62       103       219       190       104       220       221       193
 -1         2    4    0    1
 -2        10         2        13        95       105        34       134       222        11        12
 -2        96        93       103        33       132       219       106       133       223       220
 -1         3    4    0    1
 -2        19        95        16         4       192       222       163        79        94        97
 -2        17        18       190       219       161        78       221       224       164       191
 -1         4    4    0    1
 -2        95        13         3        16       222       134        64       163        96        14
 -2        15        97       219       132        63       161       223       135       162       224
 -1         5    4    0    1
 -2        61       105       222       192        59       109       228       196       104       220
 -2       221       193        60       107       225       194       108       226       227       197
 -1         6    4    0    1
 -2       105        34       134       222       109        36       138       228       106       133
 -2       223       220       107        35       136       225       110       137       229       226
 -1         7    4    0    1
 -2       192       222       163        79       196       228       167        81       221       224
 -2       164       191       194       225       165        80       227       230       168       195
 -1         8    4    0    1
 -2       222       134        64       163       228       138        66       167       223       135
 -2       162       224       225       136        65       165       229       139       166       230
 -1         9    4    0    1
 -2        59       109       228       196        57       113       234       200       108       226
 -2       227       197        58       111       231       198       112       232       233       201
 -1        10    4    0    1
 -2       109        36       138       228       113        38       142       234       110       137
 -2       229       226       111        37       140       231       114       141       235       232
 -1        11    4    0    1
 -2       196       228       167        81       200       234       171        83       227       230
 -2       168       195       198       231       169        82       233       236       172       199
 -1        12    4    0    1
 -2       228       138        66       167       234       142        68       171       229       139
 -2       166       230       231       140        67       169       235       143       170       236
 -1        13    4    0    1
 -2        57       113       234       200        55       117       240       204       112       232
 -2       233       201        56       115       237       202       116       238       239       205
 -1        14    4    0    1
 -2       113        38       142       234       117        40       146       240       114       141
 -2       235       232       115        39       144       237       118       145       241       238
 -1        15    4    0    1
 -2       200       234       171        83       204       240       175        85       233       236
 -2       172       199       202       237       173        84       239       242       176       203
 -1        16    4    0    1
 -2       234       142        68       171       240       146        70       175       235       143
 -2       170       236       237       144        69       173       241       147       174       242
 -1        17    4    0    1
 -2        55       117       240       204        53       121       246       208       116       238
 -2       239       205        54       119       243       206       120       244       245       209
 -1        18    4    0    1
 -2       117        40       146       240       121        42       150       246       118       145
 -2       241       238       119        41       148       243       122       149       247       244
 -1        19    4    0    1
 -2       204       240       175        85       208       246       179        87       239       242
 -2       176       203       206       243       177        86       245       248       180       207
 -1        20    4    0    1
 -2       240       146        70       175       246       150        72       179       241       147
 -2       174       242       243       148        71       177       247       151       178       248
 -1        21    4    0    1
 -2        53       121       246       208        51       125       252       212       120       244
 -2       245       209        52       123       249       210       124       250       251       213
 -1        22    4    0    1
 -2       121        42       150       246       125        44       154       252       122       149
 -2       247       244       123        43       152       249       126       153       253       250
 -1        23    4    0    1
 -2       208       246       179        87       212       252       183        89       245       248
 -2       180       207       210       249       181        88       251       254       184       211
 -1        24    4    0    1
 -2       246       150        72       179       252       154        74       183       247       151
 -2       178       248       249       152        73       181       253       155       182       254
 -1        25    4    0    1
 -2        51       125       252       212        49       129       258       216       124       250
 -2       251       213        50       127       255       214       128       256       257       217
 -1        26    4    0    1
 -2       125        44       154       252       129        46       158       258       126       153
 -2       253       250       127        45       156       255       130       157       259       256
 -1        27    4    0    1
 -2       212       252       183        89       216       258       187        91       251       254
 -2       184       211       214       255       185        90       257       260       188       215
 -1        28    4    0    1
 -2       252       154        74       183       258       158        76       187       253       155
 -2       182       254       255       156        75       185       259       159       186       260
 -1        29    4    0    1
 -2        49       129       258       216         5        22       100        31       128       256
 -2       257       217        48       131       261       218        21        98        99        32
 -1        30    4    0    1
 -2       129        46       158       258        22         6        25       100       130       157
 -2       259       256       131        47       160       261        23        24       101        98
 -1        31    4    0    1
 -2       216       258       187        91        31       100        28         8       257       260
 -2       188       215       218       261       189        92        99       102        29        30
 -1        32    4    0    1
 -2       258       158        76       187       100        25         7        28       259       159
 -2       186       260       261       160        77       189       101        26        27       102
 -3
    1PSTEP                         1           0           2          
  100CL  111 12000.00000         261                     1   11           1
 -4  TOSTRAIN    6    1
 -5  EXX         1    4    1    1
 -5  EYY         1    4    2    2
 -5  EZZ         1    4    3    3
 -5  EXY         1    4    1    2
 -5  EYZ         1    4    2    3
 -5  EZX         1    4    3    1
 -1         1-1.00657E-02-7.69796E-03 8.16376E-02-4.15172E-03 2.45303E-02 4.32870E-03
 -1         2 1.00657E-02 7.69796E-03-8.16376E-02-4.15172E-03-2.45303E-02 4.32870E-03
 -1         3 1.00657E-02 7.69796E-03-8.16376E-02 4.15172E-03 2.45303E-02 4.32870E-03
 -1         4-1.00657E-02-7.69796E-03 8.16376E-02 4.15172E-03-2.45303E-02 4.32870E-03
 -1         5 9.22229E-05 1.86205E-04-5.33456E-04 1.46185E-05 4.50383E-06-2.78731E-05
 -1         6-9.22229E-05-1.86205E-04 5.33456E-04 1.46185E-05-4.50383E-06-2.78731E-05
 -1         7-9.22229E-05-1.86205E-04 5.33456E-04-1.46185E-05 4.50383E-06-2.78731E-05
 -1         8 9.22229E-05 1.86205E-04-5.33456E-04-1.46185E-05-4.50383E-06-2.78731E-05
 -1         9-1.00657E-02-3.84881E-03 4.07081E-02-4.09828E-03 1.22930E-02-3.86176E-03
 -1        10-3.13638E-15-1.80368E-15 1.90941E-14-4.04483E-03 3.99089E-15-1.20522E-02
 -1        11 1.00657E-02 3.84881E-03-4.07081E-02-4.09828E-03-1.22930E-02-3.86176E-03
 -1        12 9.90541E-03 7.69795E-03-7.96457E-02-1.26490E-03-1.19375E-02 1.14257E-02
 -1        13 9.74507E-03 7.69794E-03-7.76539E-02 5.80807E-16-4.11363E-15 1.85228E-02
 -1        14 9.90541E-03 7.69795E-03-7.96457E-02 1.26490E-03 1.19375E-02 1.14257E-02
 -1        15 1.00657E-02 3.84881E-03-4.07081E-02 4.09828E-03 1.22930E-02-3.86176E-03
 -1        16 3.42521E-15 1.98994E-15-2.04515E-14 4.04483E-03 4.43230E-15-1.20522E-02
 -1        17-1.00657E-02-3.84881E-03 4.07081E-02 4.09828E-03-1.22930E-02-3.86176E-03
 -1        18-9.90541E-03-7.69795E-03 7.96457E-02 1.26490E-03-1.19375E-02 1.14257E-02
 -1        19-9.74507E-03-7.69794E-03 7.76539E-02-7.81927E-16-2.17952E-15 1.85228E-02
 -1        20-9.90541E-03-7.69795E-03 7.96457E-02-1.26490E-03 1.19375E-02 1.14257E-02
 -1        21-3.27056E-05 9.89534E-05-1.85878E-04 5.09923E-05 3.83972E-06 8.06701E-05
 -1        22 1.31088E-14-1.30963E-14 1.04192E-14 8.73662E-05 5.19278E-15 1.89213E-04
 -1        23 3.27056E-05-9.89534E-05 1.85878E-04 5.09923E-05-3.83972E-06 8.06701E-05
 -1        24-1.38552E-04-4.14952E-05 4.90734E-04 1.82570E-05-9.76146E-06-2.66932E-05
 -1        25-1.84881E-04 1.03215E-04 4.48013E-04 2.32806E-15 7.54167E-15-2.55132E-05
 -1        26-1.38552E-04-4.14952E-05 4.90734E-04-1.82570E-05 9.76146E-06-2.66932E-05
 -1        27 3.27056E-05-9.89534E-05 1.85878E-04-5.09923E-05 3.83972E-06 8.06701E-05
 -1        28 2.51278E-14-8.49519E-15-1.33734E-15-8.73662E-05 4.35032E-15 1.89213E-04
 -1        29-3.27056E-05 9.89534E-05-1.85878E-04-5.09923E-05-3.83972E-06 8.06701E-05
 -1        30 1.38552E-04 4.14952E-05-4.90734E-04-1.82570E-05-9.76146E-06-2.66932E-05
 -1        31 1.84881E-04-1.03215E-04-4.48013E-04 9.04840E-15-2.93398E-15-2.55132E-05
 -1        32 1.38552E-04 4.14952E-05-4.90734E-04 1.82570E-05 9.76146E-06-2.66932E-05
 -1        33 2.04504E-02 1.93206E-02-8.18050E-02-2.38966E-03-6.88200E-03 1.28840E-04
 -1        34 2.79316E-02 2.76207E-02-8.03632E-02 1.08001E-03 4.96088E-03 8.31666E-04
 -1        35 2.22928E-02 2.18148E-02-7.13322E-02 8.96851E-04 4.33763E-04 1.74676E-03
 -1        36 1.83109E-02 1.88558E-02-6.31614E-02-7.07794E-04 7.76989E-04-7.34605E-06
 -1        37 1.63042E-02 1.65288E-02-5.56683E-02-1.78011E-04 3.78241E-04 1.12735E-03
 -1        38 1.49732E-02 1.46341E-02-4.85619E-02 1.22708E-04 7.53815E-04 8.66136E-04
 -1        39 1.24544E-02 1.24543E-02-4.13600E-02 5.81380E-05 5.86130E-04 1.08414E-03
 -1        40 1.03080E-02 1.02941E-02-3.43846E-02-4.07317E-05 5.18873E-04 7.78521E-04
 -1        41 8.44100E-03 8.45215E-03-2.82062E-02-6.39060E-06 4.74376E-04 8.72624E-04
 -1        42 6.68524E-03 6.63047E-03-2.21043E-02 1.17698E-05 4.74896E-04 7.72802E-04
 -1        43 5.05378E-03 5.04443E-03-1.68076E-02 6.25858E-06 4.23451E-04 7.45557E-04
 -1        44 3.47097E-03 3.44315E-03-1.14819E-02 2.34573E-06 3.82430E-04 6.49848E-04
 -1        45 2.23310E-03 2.20499E-03-7.36774E-03 8.27386E-06 3.25293E-04 5.70459E-04
 -1        46 9.98994E-04 9.64105E-04-3.21737E-03 7.34006E-06 2.54190E-04 4.52270E-04
 -1        47 4.36088E-04 3.78082E-04-1.27976E-03 1.16381E-05 1.15398E-04 2.18580E-04
 -1        48-4.36088E-04-3.78082E-04 1.27976E-03 1.16381E-05-1.15398E-04 2.18580E-04
 -1        49-9.98994E-04-9.64105E-04 3.21737E-03 7.34006E-06-2.54190E-04 4.52270E-04
 -1        50-2.23310E-03-2.20499E-03 7.36774E-03 8.27386E-06-3.25293E-04 5.70459E-04
 -1        51-3.47097E-03-3.44315E-03 1.14819E-02 2.34573E-06-3.82430E-04 6.49848E-04
 -1        52-5.05378E-03-5.04443E-03 1.68076E-02 6.25858E-06-4.23451E-04 7.45557E-04
 -1        53-6.68524E-03-6.63047E-03 2.21043E-02 1.17698E-05-4.74896E-04 7.72802E-04
 -1        54-8.44100E-03-8.45215E-03 2.82062E-02-6.39060E-06-4.74376E-04 8.72624E-04
 -1        55-1.03080E-02-1.02941E-02 3.43846E-02-4.07317E-05-5.18873E-04 7.78521E-04
 -1        56-1.24544E-02-1.24543E-02 4.13600E-02 5.81380E-05-5.86130E-04 1.08414E-03
 -1        57-1.49732E-02-1.46341E-02 4.85619E-02 1.22708E-04-7.53815E-04 8.66136E-04
 -1        58-1.63042E-02-1.65288E-02 5.56683E-02-1.78011E-04-3.78241E-04 1.12735E-03
 -1        59-1.83109E-02-1.88558E-02 6.31614E-02-7.07794E-04-7.76989E-04-7.34605E-06
 -1        60-2.22928E-02-2.18148E-02 7.13322E-02 8.96851E-04-4.33763E-04 1.74676E-03
 -1        61-2.79316E-02-2.76207E-02 8.03632E-02 1.08001E-03-4.96088E-03 8.31666E-04
 -1        62-2.04504E-02-1.93206E-02 8.18050E-02-2.38966E-03 6.88200E-03 1.28840E-04
 -1        63 2.04504E-02 1.93206E-02-8.18050E-02 2.38966E-03 6.88200E-03 1.28840E-04
 -1        64 2.79316E-02 2.76207E-02-8.03632E-02-1.08001E-03-4.96088E-03 8.31666E-04
 -1        65 2.22928E-02 2.18148E-02-7.13322E-02-8.96851E-04-4.33763E-04 1.74676E-03
 -1        66 1.83109E-02 1.88558E-02-6.31614E-02 7.07794E-04-7.76989E-04-7.34605E-06
 -1        67 1.63042E-02 1.65288E-02-5.56683E-02 1.78011E-04-3.78241E-04 1.12735E-03
 -1        68 1.49732E-02 1.46341E-02-4.85619E-02-1.22708E-04-7.53815E-04 8.66136E-04
 -1        69 1.24544E-02 1.24543E-02-4.13600E-02-5.81380E-05-5.86130E-04 1.08414E-03
 -1        70 1.03080E-02 1.02941E-02-3.43846E-02 4.07317E-05-5.18873E-04 7.78521E-04
 -1        71 8.44100E-03 8.45215E-03-2.82062E-02 6.39060E-06-4.74376E-04 8.72624E-04
 -1        72 6.68524E-03 6.63047E-03-2.21043E-02-1.17698E-05-4.74896E-04 7.72802E-04
 -1        73 5.05378E-03 5.04443E-03-1.68076E-02-6.25858E-06-4.23451E-04 7.45557E-04
 -1        74 3.47097E-03 3.44315E-03-1.14819E-02-2.34573E-06-3.82430E-04 6.49848E-04
 -1        75 2.23310E-03 2.20499E-03-7.36774E-03-8.27386E-06-3.25293E-04 5.70459E-04
 -1        76 9.98994E-04 9.64105E-04-3.21737E-03-7.34006E-06-2.54190E-04 4.52270E-04
 -1        77 4.36088E-04 3.78082E-04-1.27976E-03-1.16381E-05-1.15398E-04 2.18580E-04
 -1        78-2.04504E-02-1.93206E-02 8.18050E-02 2.38966E-03-6.88200E-03 1.28840E-04
 -1        79-2.79316E-02-2.76207E-02 8.03632E-02-1.08001E-03 4.96088E-03 8.31666E-04
 -1        80-2.22928E-02-2.18148E-02 7.13322E-02-8.96851E-04 4.33763E-04 1.74676E-03
 -1        81-1.83109E-02-1.88558E-02 6.31614E-02 7.07794E-04 7.76989E-04-7.34605E-06
 -1        82-1.63042E-02-1.65288E-02 5.56683E-02 1.78011E-04 3.78241E-04 1.12735E-03
 -1        83-1.49732E-02-1.46341E-02 4.85619E-02-1.22708E-04 7.53815E-04 8.66136E-04
 -1        84-1.24544E-02-1.24543E-02 4.13600E-02-5.81380E-05 5.86130E-04 1.08414E-03
 -1        85-1.03080E-02-1.02941E-02 3.43846E-02 4.07317E-05 5.18873E-04 7.78521E-04
 -1        86-8.44100E-03-8.45215E-03 2.82062E-02 6.39060E-06 4.74376E-04 8.72624E-04
 -1        87-6.68524E-03-6.63047E-03 2.21043E-02-1.17698E-05 4.74896E-04 7.72802E-04
 -1        88-5.05378E-03-5.04443E-03 1.68076E-02-6.25858E-06 4.23451E-04 7.45557E-04
 -1        89-3.47097E-03-3.44315E-03 1.14819E-02-2.34573E-06 3.82430E-04 6.49848E-04
 -1        90-2.23310E-03-2.20499E-03 7.36774E-03-8.27386E-06 3.25293E-04 5.70459E-04
 -1        91-9.98994E-04-9.64105E-04 3.21737E-03-7.34006E-06 2.54190E-04 4.52270E-04
 -1        92-4.36088E-04-3.78082E-04 1.27976E-03-1.16381E-05 1.15398E-04 2.18580E-04
 -1        93-1.47278E-15-1.81138E-15 9.23914E-15-1.15801E-03 1.45750E-15-4.87861E-03