
 displacements (vx,vy,vz) for set NALL and time  0.1000000E+01

         1  0.000000E+00  0.000000E+00  0.000000E+00
         2  0.000000E+00  0.000000E+00  0.000000E+00
         3  0.000000E+00  0.000000E+00  0.000000E+00
         4  0.000000E+00  0.000000E+00  0.000000E+00
         5 -8.174809E-05  1.753764E-01  1.636110E-02
         6  8.174809E-05  1.753764E-01  1.636110E-02
         7 -8.174809E-05  1.753764E-01 -1.636110E-02
         8  8.174809E-05  1.753764E-01 -1.636110E-02
         9  0.000000E+00  0.000000E+00  0.000000E+00
        10  0.000000E+00  0.000000E+00  0.000000E+00
        11  0.000000E+00  0.000000E+00  0.000000E+00
        12  0.000000E+00  0.000000E+00  0.000000E+00
        13  0.000000E+00  0.000000E+00  0.000000E+00
        14  0.000000E+00  0.000000E+00  0.000000E+00
        15  0.000000E+00  0.000000E+00  0.000000E+00
        16  0.000000E+00  0.000000E+00  0.000000E+00
        17  0.000000E+00  0.000000E+00  0.000000E+00
        18  0.000000E+00  0.000000E+00  0.000000E+00
        19  0.000000E+00  0.000000E+00  0.000000E+00
        20  0.000000E+00  0.000000E+00  0.000000E+00
        21 -3.734986E-05  1.752041E-01  1.634551E-02
        22  9.225830E-14  1.751891E-01  1.631125E-02
        23  3.734986E-05  1.752041E-01  1.634551E-02
        24  2.116407E-07  1.752423E-01  8.127041E-03
        25  7.863458E-14  1.751524E-01 -5.059321E-15
        26 -2.116405E-07  1.752423E-01 -8.127041E-03
        27 -3.734986E-05  1.752041E-01 -1.634551E-02
        28  6.499681E-14  1.751891E-01 -1.631125E-02
        29  3.734986E-05  1.752041E-01 -1.634551E-02
        30  2.116406E-07  1.752423E-01 -8.127041E-03
        31  7.877974E-14  1.751524E-01  6.745540E-15
        32 -2.116405E-07  1.752423E-01  8.127041E-03
        33 -6.174108E-04  1.075952E-03  1.851789E-03
        34 -4.500776E-04  3.839629E-03  3.709090E-03
        35 -5.083612E-04  8.640139E-03  5.452877E-03
        36 -4.486917E-04  1.496627E-02  7.064956E-03
        37 -4.265231E-04  2.293794E-02  8.534155E-03
        38 -3.818499E-04  3.225517E-02  9.886201E-03
        39 -3.477861E-04  4.289602E-02  1.110640E-02
        40 -3.075277E-04  5.467273E-02  1.220150E-02
        41 -2.704599E-04  6.748720E-02  1.316357E-02
        42 -2.328747E-04  8.119982E-02  1.400023E-02
        43 -1.906922E-04  9.568103E-02  1.470690E-02
        44 -1.528436E-04  1.108249E-01  1.528921E-02
        45 -1.191896E-04  1.264324E-01  1.573285E-02
        46 -9.772392E-05  1.424813E-01  1.605466E-02
        47 -7.603925E-06  1.587642E-01  1.625294E-02
        48  7.603925E-06  1.587642E-01  1.625294E-02
        49  9.772392E-05  1.424813E-01  1.605466E-02
        50  1.191896E-04  1.264324E-01  1.573285E-02
        51  1.528436E-04  1.108249E-01  1.528921E-02
        52  1.906923E-04  9.568103E-02  1.470690E-02
        53  2.328747E-04  8.119982E-02  1.400023E-02
        54  2.704599E-04  6.748720E-02  1.316357E-02
        55  3.075277E-04  5.467273E-02  1.220150E-02
        56  3.477861E-04  4.289602E-02  1.110640E-02
        57  3.818499E-04  3.225517E-02  9.886201E-03
        58  4.265231E-04  2.293794E-02  8.534155E-03
        59  4.486917E-04  1.496627E-02  7.064956E-03
        60  5.083612E-04  8.640139E-03  5.452877E-03
        61  4.500776E-04  3.839629E-03  3.709090E-03
        62  6.174108E-04  1.075952E-03  1.851789E-03
        63  6.174108E-04  1.075952E-03 -1.851789E-03
        64  4.500776E-04  3.839629E-03 -3.709090E-03
        65  5.083612E-04  8.640139E-03 -5.452877E-03
        66  4.486917E-04  1.496627E-02 -7.064956E-03
        67  4.265231E-04  2.293794E-02 -8.534155E-03
        68  3.818499E-04  3.225517E-02 -9.886201E-03
        69  3.477861E-04  4.289602E-02 -1.110640E-02
        70  3.075277E-04  5.467273E-02 -1.220150E-02
        71  2.704599E-04  6.748720E-02 -1.316357E-02
        72  2.328747E-04  8.119982E-02 -1.400023E-02
        73  1.906923E-04  9.568103E-02 -1.470690E-02
        74  1.528436E-04  1.108249E-01 -1.528921E-02
        75  1.191896E-04  1.264324E-01 -1.573285E-02
        76  9.772392E-05  1.424813E-01 -1.605466E-02
        77  7.603925E-06  1.587642E-01 -1.625294E-02
        78 -6.174108E-04  1.075952E-03 -1.851789E-03
        79 -4.500776E-04  3.839629E-03 -3.709090E-03
        80 -5.083612E-04  8.640139E-03 -5.452877E-03
        81 -4.486917E-04  1.496627E-02 -7.064956E-03
        82 -4.265231E-04  2.293794E-02 -8.534155E-03
        83 -3.818499E-04  3.225517E-02 -9.886201E-03
        84 -3.477861E-04  4.289602E-02 -1.110640E-02
        85 -3.075277E-04  5.467273E-02 -1.220150E-02
        86 -2.704599E-04  6.748720E-02 -1.316357E-02
        87 -2.328747E-04  8.119982E-02 -1.400023E-02
        88 -1.906922E-04  9.568103E-02 -1.470690E-02
        89 -1.528436E-04  1.108249E-01 -1.528921E-02
        90 -1.191896E-04  1.264324E-01 -1.573285E-02
        91 -9.772392E-05  1.424813E-01 -1.605466E-02
        92 -7.603925E-06  1.587642E-01 -1.625294E-02
        93  0.000000E+00  0.000000E+00  0.000000E+00
        94  0.000000E+00  0.000000E+00  0.000000E+00
        95  0.000000E+00  0.000000E+00  0.000000E+00
        96  0.000000E+00  0.000000E+00  0.000000E+00
        97  0.000000E+00  0.000000E+00  0.000000E+00
        98  8.548225E-14  1.751478E-01  8.136574E-03
        99  7.869640E-14  1.751425E-01  3.707796E-15
       100  7.867014E-14  1.751121E-01  7.000149E-16
       101  7.861899E-14  1.751425E-01 -2.219520E-15
       102  7.177955E-14  1.751478E-01 -8.136574E-03
       103  1.569231E-15  1.340676E-03  1.798477E-03
       104  2.228162E-04  4.057196E-03  3.732975E-03
       105  4.694704E-15  4.106227E-03  3.759969E-03
       106 -2.228162E-04  4.057196E-03  3.732975E-03
       107  8.807408E-15  8.881722E-03  5.454299E-03
       108  2.243760E-04  1.514033E-02  7.078108E-03
       109  1.396329E-14  1.520837E-02  7.080191E-03
       110 -2.243760E-04  1.514033E-02  7.078108E-03
       111  1.976360E-14  2.314596E-02  8.541202E-03
       112  1.908054E-04  3.240355E-02  9.895495E-03
       113  2.636255E-14  3.245287E-02  9.895772E-03
       114 -1.908054E-04  3.240355E-02  9.895495E-03
       115  3.323234E-14  4.306834E-02  1.111464E-02
       116  1.537992E-04  5.478798E-02  1.221038E-02
       117  4.060608E-14  5.482745E-02  1.220962E-02
       118 -1.537992E-04  5.478798E-02  1.221038E-02
       119  4.747916E-14  6.762309E-02  1.317193E-02
       120  1.163439E-04  8.128677E-02  1.400929E-02
       121  5.462899E-14  8.131292E-02  1.400840E-02
       122 -1.163439E-04  8.128677E-02  1.400929E-02
       123  6.148294E-14  9.577886E-02  1.471518E-02
       124  7.677679E-05  1.108701E-01  1.529694E-02
       125  6.815382E-14  1.108875E-01  1.529584E-02
       126 -7.677679E-05  1.108701E-01  1.529694E-02
       127  7.454454E-14  1.265028E-01  1.574171E-02
       128  4.736195E-05  1.425204E-01  1.606567E-02
       129  8.078394E-14  1.425000E-01  1.606584E-02
       130 -4.736195E-05  1.425204E-01  1.606567E-02
       131  8.647966E-14  1.587839E-01  1.625694E-02
       132  9.248654E-16  6.962283E-04 -1.132688E-15
       133 -2.271088E-04  3.686704E-03  1.838091E-03
       134  2.771990E-15  3.709905E-03 -2.290064E-15
       135  2.271088E-04  3.686704E-03 -1.838091E-03
       136  5.796389E-15  8.344438E-03 -3.186443E-15
       137 -2.238394E-04  1.483000E-02  3.509718E-03
       138  9.664800E-15  1.479848E-02 -3.985527E-15
       139  2.238394E-04  1.483000E-02 -3.509718E-03
       140  1.432188E-14  2.270847E-02 -4.640602E-15
       141 -1.910419E-04  3.212078E-02  4.923259E-03
       142  1.958156E-14  3.208565E-02 -5.108246E-15
       143  1.910419E-04  3.212078E-02 -4.923259E-03
       144  2.529433E-14  4.271640E-02 -5.399760E-15
       145 -1.538742E-04  5.456043E-02  6.079749E-03
       146  3.127496E-14  5.452468E-02 -5.563465E-15
       147  1.538742E-04  5.456043E-02 -6.079749E-03
       148  3.724397E-14  6.735223E-02 -5.487911E-15
       149 -1.158297E-04  8.111170E-02  6.979995E-03
       150  4.331084E-14  8.108101E-02 -5.450175E-15
       151  1.158297E-04  8.111170E-02 -6.979995E-03
       152  4.918115E-14  9.558772E-02 -5.404493E-15
       153 -7.898806E-05  1.107534E-01  7.622187E-03
       154  5.529258E-14  1.107231E-01 -5.290907E-15
       155  7.898806E-05  1.107534E-01 -7.622187E-03
       156  6.104665E-14  1.263947E-01 -5.207260E-15
       157 -3.899210E-05  1.424427E-01  8.013575E-03
       158  6.689566E-14  1.424129E-01 -5.076235E-15
       159  3.899210E-05  1.424427E-01 -8.013575E-03
       160  7.281085E-14  1.587572E-01 -5.128683E-15
       161 -5.017281E-16  1.340676E-03 -1.798477E-03
       162  2.228162E-04  4.057196E-03 -3.732975E-03
       163  4.145176E-16  4.106227E-03 -3.759969E-03
       164 -2.228162E-04  4.057196E-03 -3.732975E-03
       165  2.226301E-15  8.881722E-03 -5.454299E-03
       166  2.243760E-04  1.514033E-02 -7.078108E-03
       167  5.028855E-15  1.520837E-02 -7.080191E-03
       168 -2.243760E-04  1.514033E-02 -7.078108E-03
       169  8.517700E-15  2.314596E-02 -8.541202E-03
       170  1.908054E-04  3.240355E-02 -9.895495E-03
       171  1.264256E-14  3.245287E-02 -9.895772E-03
       172 -1.908054E-04  3.240355E-02 -9.895495E-03
       173  1.723491E-14  4.306834E-02 -1.111464E-02
       174  1.537992E-04  5.478798E-02 -1.221038E-02
       175  2.215719E-14  5.482745E-02 -1.220962E-02
       176 -1.537992E-04  5.478798E-02 -1.221038E-02
       177  2.709342E-14  6.762309E-02 -1.317193E-02
       178  1.163439E-04  8.128677E-02 -1.400929E-02
       179  3.212923E-14  8.131292E-02 -1.400840E-02
       180 -1.163439E-04  8.128677E-02 -1.400929E-02
       181  3.707429E-14  9.577886E-02 -1.471518E-02
       182  7.677679E-05  1.108701E-01 -1.529694E-02
       183  4.227174E-14  1.108875E-01 -1.529584E-02
       184 -7.677679E-05  1.108701E-01 -1.529694E-02
       185  4.760081E-14  1.265028E-01 -1.574171E-02
       186  4.736195E-05  1.425204E-01 -1.606567E-02
       187  5.312021E-14  1.425000E-01 -1.606584E-02
       188 -4.736195E-05  1.425204E-01 -1.606567E-02
       189  5.899148E-14  1.587839E-01 -1.625694E-02
       190  9.583730E-16  6.962283E-04  1.225448E-15
       191 -2.271088E-04  3.686704E-03 -1.838091E-03
       192  2.798516E-15  3.709905E-03  2.495257E-15
       193  2.271088E-04  3.686704E-03  1.838091E-03
       194  5.823669E-15  8.344438E-03  3.497826E-15
       195 -2.238394E-04  1.483000E-02 -3.509718E-03
       196  9.703325E-15  1.479848E-02  4.381153E-15
       197  2.238394E-04  1.483000E-02  3.509718E-03
       198  1.434775E-14  2.270847E-02  5.118434E-15
       199 -1.910419E-04  3.212078E-02 -4.923259E-03
       200  1.964488E-14  3.208565E-02  5.701718E-15
       201  1.910419E-04  3.212078E-02  4.923259E-03
       202  2.533435E-14  4.271640E-02  6.096144E-15
       203 -1.538742E-04  5.456043E-02 -6.079749E-03
       204  3.138418E-14  5.452468E-02  6.325459E-15
       205  1.538742E-04  5.456043E-02  6.079749E-03
       206  3.731754E-14  6.735223E-02  6.409043E-15
       207 -1.158297E-04  8.111170E-02 -6.979995E-03
       208  4.328515E-14  8.108101E-02  6.397249E-15
       209  1.158297E-04  8.111170E-02  6.979995E-03
       210  4.920326E-14  9.558772E-02  6.502231E-15
       211 -7.898806E-05  1.107534E-01 -7.622187E-03
       212  5.518110E-14  1.107231E-01  6.453171E-15
       213  7.898806E-05  1.107534E-01  7.622187E-03
       214  6.105880E-14  1.263947E-01  6.473331E-15
       215 -3.899210E-05  1.424427E-01 -8.013575E-03
       216  6.694688E-14  1.424129E-01  6.583167E-15
       217  3.899210E-05  1.424427E-01  8.013575E-03
       218  7.267396E-14  1.587572E-01  6.581554E-15
       219  6.989587E-16  9.594621E-04  4.561435E-17
       220  3.748297E-15  3.940312E-03  1.859779E-03
       221  2.689596E-15  3.919217E-03  1.271770E-15
       222  2.695245E-15  3.955862E-03  1.017494E-16
       223  2.678142E-15  3.919217E-03 -1.067682E-15
       224  1.611022E-15  3.940312E-03 -1.859779E-03
       225  5.659861E-15  8.594833E-03  1.580767E-16
       226  1.179938E-14  1.506395E-02  3.522520E-03
       227  9.626306E-15  1.496328E-02  2.276854E-15
       228  9.589235E-15  1.502306E-02  2.012290E-16
       229  9.605381E-15  1.496328E-02 -1.870899E-15
       230  7.314662E-15  1.506395E-02 -3.522520E-03
       231  1.424691E-14  2.292254E-02  2.555736E-16
       232  2.296187E-14  3.231428E-02  4.931932E-03
       233  1.955033E-14  3.223010E-02  2.980689E-15
       234  1.950024E-14  3.227539E-02  3.131176E-16
       235  1.951267E-14  3.223010E-02 -2.382553E-15
       236  1.611320E-14  3.231428E-02 -4.931932E-03
       237  2.529806E-14  4.289072E-02  3.522700E-16
       238  3.588662E-14  5.471487E-02  6.088044E-03
       239  3.131349E-14  5.463987E-02  3.359976E-15
       240  3.121894E-14  5.467857E-02  4.231641E-16
       241  3.123210E-14  5.463987E-02 -2.544839E-15
       242  2.667166E-14  5.471487E-02 -6.088044E-03
       243  3.734941E-14  6.748689E-02  4.518955E-16
       244  4.892644E-14  8.122709E-02  6.988051E-03
       245  4.324717E-14  8.116904E-02  3.463169E-15
       246  4.319776E-14  8.119934E-02  5.303917E-16
       247  4.325533E-14  8.116904E-02 -2.464527E-15
       248  3.767407E-14  8.122709E-02 -6.988051E-03
       249  4.919589E-14  9.568158E-02  5.338522E-16
       250  6.165294E-14  1.108272E-01  7.630809E-03
       251  5.511173E-14  1.107842E-01  3.548377E-15
       252  5.514686E-14  1.108055E-01  6.210731E-16
       253  5.524574E-14  1.107842E-01 -2.337652E-15
       254  4.869596E-14  1.108272E-01 -7.630809E-03
       255  6.109707E-14  1.264500E-01  6.361465E-16
       256  7.380555E-14  1.424715E-01  8.018210E-03
       257  6.687740E-14  1.424441E-01  3.634246E-15
       258  6.682781E-14  1.424614E-01  7.214688E-16
       259  6.688920E-14  1.424441E-01 -2.176211E-15
       260  5.997806E-14  1.424715E-01 -8.018210E-03
       261  7.278336E-14  1.587590E-01  7.710846E-16

 stresses (elem, integ.pnt.,sxx,syy,szz,sxy,sxz,syz) for set EALL and time  0.1000000E+01

         1   1  1.221253E+02  1.229335E+02  6.795987E+02 -1.534055E+01  6.262799E+01  2.139294E+01
         1   2  1.157225E+02  1.160192E+02  6.627748E+02  4.476486E+00  1.287841E+01  5.161602E+01
         1   3  2.883967E+00 -3.509576E+01  1.509678E+02 -1.536176E+01  1.678298E+01 -1.578339E+01
         1   4  1.427516E+00 -3.617293E+01  1.465483E+02  4.455680E+00  3.405510E+00  1.477444E+01
         1   5 -3.415386E+01 -2.905388E+01  6.019578E+02 -5.420975E+00 -2.517481E+01 -3.024102E-02
         1   6 -2.001283E+01 -1.982131E+01  6.309225E+02  1.885573E+00 -7.744454E+00 -1.722152E+00
         1   7 -1.660605E+01 -2.296120E+01  1.527373E+02 -7.000024E+00 -6.914442E+00  3.763733E+01
         1   8 -1.314683E+01 -2.108626E+01  1.599978E+02  3.080337E-01 -2.291102E+00  3.611506E+01
         2   1  1.157225E+02  1.160192E+02  6.627748E+02 -4.476486E+00 -1.287841E+01  5.161602E+01
         2   2  1.221253E+02  1.229335E+02  6.795987E+02  1.534055E+01 -6.262799E+01  2.139294E+01
         2   3  1.427516E+00 -3.617293E+01  1.465483E+02 -4.455680E+00 -3.405510E+00  1.477444E+01
         2   4  2.883967E+00 -3.509576E+01  1.509678E+02  1.536176E+01 -1.678298E+01 -1.578339E+01
         2   5 -2.001283E+01 -1.982131E+01  6.309225E+02 -1.885573E+00  7.744454E+00 -1.722152E+00
         2   6 -3.415386E+01 -2.905388E+01  6.019578E+02  5.420975E+00  2.517481E+01 -3.024102E-02
         2   7 -1.314683E+01 -2.108626E+01  1.599978E+02 -3.080337E-01  2.291102E+00  3.611506E+01
         2   8 -1.660605E+01 -2.296120E+01  1.527373E+02  7.000024E+00  6.914442E+00  3.763733E+01
         3   1 -2.883967E+00  3.509576E+01 -1.509678E+02 -1.536176E+01 -1.678298E+01 -1.578339E+01
         3   2 -1.427516E+00  3.617293E+01 -1.465483E+02  4.455680E+00 -3.405510E+00  1.477444E+01
         3   3 -1.221253E+02 -1.229335E+02 -6.795987E+02 -1.534055E+01 -6.262799E+01  2.139294E+01
         3   4 -1.157225E+02 -1.160192E+02 -6.627748E+02  4.476486E+00 -1.287841E+01  5.161602E+01
         3   5  1.660605E+01  2.296120E+01 -1.527373E+02 -7.000024E+00  6.914442E+00  3.763733E+01
         3   6  1.314683E+01  2.108626E+01 -1.599978E+02  3.080337E-01  2.291102E+00  3.611506E+01
         3   7  3.415386E+01  2.905388E+01 -6.019578E+02 -5.420975E+00  2.517481E+01 -3.024102E-02
         3   8  2.001283E+01  1.982131E+01 -6.309225E+02  1.885573E+00  7.744454E+00 -1.722152E+00
         4   1 -1.427516E+00  3.617293E+01 -1.465483E+02 -4.455680E+00  3.405510E+00  1.477444E+01
         4   2 -2.883967E+00  3.509576E+01 -1.509678E+02  1.536176E+01  1.678298E+01 -1.578339E+01
         4   3 -1.157225E+02 -1.160192E+02 -6.627748E+02 -4.476486E+00  1.287841E+01  5.161602E+01
         4   4 -1.221253E+02 -1.229335E+02 -6.795987E+02  1.534055E+01  6.262799E+01  2.139294E+01
         4   5  1.314683E+01  2.108626E+01 -1.599978E+02 -3.080337E-01 -2.291102E+00  3.611506E+01
         4   6  1.660605E+01  2.296120E+01 -1.527373E+02  7.000024E+00 -6.914442E+00  3.763733E+01
         4   7  2.001283E+01  1.982131E+01 -6.309225E+02 -1.885573E+00 -7.744454E+00 -1.722152E+00
         4   8  3.415386E+01  2.905388E+01 -6.019578E+02  5.420975E+00 -2.517481E+01 -3.024102E-02
         5   1  1.038511E+01  5.117132E-02  5.804833E+02  8.011502E+00  9.377427E+00  2.118260E+01
         5   2  7.569505E+00 -5.930082E+00  5.681723E+02 -4.885891E+00  4.532836E+00  1.695588E+01
         5   3  1.784323E+01  3.630503E+01  1.704928E+02  7.313110E+00  2.285726E+00  1.773376E+01
         5   4  1.806160E+01  3.656554E+01  1.685736E+02 -5.584391E+00  1.046255E+00  1.612776E+01
         5   5 -7.190162E+00 -1.043931E+01  5.268011E+02 -1.333893E+00 -5.169762E+00  4.209118E+00
         5   6 -3.759744E+00 -7.491656E+00  5.330144E+02 -2.856152E-01 -2.404514E+00  4.492651E+00
         5   7 -5.363989E+00 -1.044952E+01  1.373763E+02 -1.306234E+00 -1.205476E+00  3.304224E+01
         5   8 -4.062554E+00 -9.174472E+00  1.398301E+02 -2.635875E-01 -4.058967E-01  3.025599E+01
         6   1  7.569505E+00 -5.930082E+00  5.681723E+02  4.885891E+00 -4.532836E+00  1.695588E+01
         6   2  1.038511E+01  5.117132E-02  5.804833E+02 -8.011502E+00 -9.377427E+00  2.118260E+01
         6   3  1.806160E+01  3.656554E+01  1.685736E+02  5.584391E+00 -1.046255E+00  1.612776E+01
         6   4  1.784323E+01  3.630503E+01  1.704928E+02 -7.313110E+00 -2.285726E+00  1.773376E+01
         6   5 -3.759744E+00 -7.491656E+00  5.330144E+02  2.856152E-01  2.404514E+00  4.492651E+00
         6   6 -7.190162E+00 -1.043931E+01  5.268011E+02  1.333893E+00  5.169762E+00  4.209118E+00
         6   7 -4.062554E+00 -9.174472E+00  1.398301E+02  2.635875E-01  4.058967E-01  3.025599E+01
         6   8 -5.363989E+00 -1.044952E+01  1.373763E+02  1.306234E+00  1.205476E+00  3.304224E+01
         7   1 -1.784323E+01 -3.630503E+01 -1.704928E+02  7.313110E+00 -2.285726E+00  1.773376E+01
         7   2 -1.806160E+01 -3.656554E+01 -1.685736E+02 -5.584391E+00 -1.046255E+00  1.612776E+01
         7   3 -1.038511E+01 -5.117132E-02 -5.804833E+02  8.011502E+00 -9.377427E+00  2.118260E+01
         7   4 -7.569505E+00  5.930082E+00 -5.681723E+02 -4.885891E+00 -4.532836E+00  1.695588E+01
         7   5  5.363989E+00  1.044952E+01 -1.373763E+02 -1.306234E+00  1.205476E+00  3.304224E+01
         7   6  4.062554E+00  9.174472E+00 -1.398301E+02 -2.635875E-01  4.058967E-01  3.025599E+01
         7   7  7.190162E+00  1.043931E+01 -5.268011E+02 -1.333893E+00  5.169762E+00  4.209118E+00
         7   8  3.759744E+00  7.491656E+00 -5.330144E+02 -2.856152E-01  2.404514E+00  4.492651E+00
         8   1 -1.806160E+01 -3.656554E+01 -1.685736E+02  5.584391E+00  1.046255E+00  1.612776E+01
         8   2 -1.784323E+01 -3.630503E+01 -1.704928E+02 -7.313110E+00  2.285726E+00  1.773376E+01
         8   3 -7.569505E+00  5.930082E+00 -5.681723E+02  4.885891E+00  4.532836E+00  1.695588E+01
         8   4 -1.038511E+01 -5.117132E-02 -5.804833E+02 -8.011502E+00  9.377427E+00  2.118260E+01
         8   5  4.062554E+00  9.174472E+00 -1.398301E+02  2.635875E-01 -4.058967E-01  3.025599E+01
         8   6  5.363989E+00  1.044952E+01 -1.373763E+02  1.306234E+00 -1.205476E+00  3.304224E+01
         8   7  3.759744E+00  7.491656E+00 -5.330144E+02  2.856152E-01 -2.404514E+00  4.492651E+00
         8   8  7.190162E+00  1.043931E+01 -5.268011E+02  1.333893E+00 -5.169762E+00  4.209118E+00
         9   1  5.586013E+00  1.185786E+01  4.945233E+02 -7.011392E-01  1.394437E+00  1.473004E+01
         9   2  4.257935E+00  1.016050E+01  4.917864E+02  1.668594E+00 -2.513339E-01  1.195833E+01
         9   3  1.267155E+00  2.236129E+00  1.324269E+02 -8.388642E-01  7.801171E-01  2.438679E+01
         9   4  3.841227E-01  6.103043E-01  1.311073E+02  1.530898E+00  3.249481E-01  2.092484E+01
         9   5 -1.861144E+00 -4.065333E+00  4.435688E+02 -3.968068E-01 -1.888166E+00  8.758610E+00
         9   6 -1.027965E+00 -2.878610E+00  4.447110E+02 -2.556048E-01 -1.274101E+00  7.833264E+00
         9   7 -1.812993E+00 -4.372272E+00  1.177458E+02 -1.645726E-01 -1.585112E-01  2.951807E+01
         9   8 -1.356962E+00 -3.452076E+00  1.182255E+02 -2.354841E-03 -8.159060E-03  2.589006E+01
        10   1  4.257935E+00  1.016050E+01  4.917864E+02 -1.668594E+00  2.513339E-01  1.195833E+01
        10   2  5.586013E+00  1.185786E+01  4.945233E+02  7.011392E-01 -1.394437E+00  1.473004E+01
        10   3  3.841227E-01  6.103043E-01  1.311073E+02 -1.530898E+00 -3.249481E-01  2.092484E+01
        10   4  1.267155E+00  2.236129E+00  1.324269E+02  8.388642E-01 -7.801171E-01  2.438679E+01
        10   5 -1.027965E+00 -2.878610E+00  4.447110E+02  2.556048E-01  1.274101E+00  7.833264E+00
        10   6 -1.861144E+00 -4.065333E+00  4.435688E+02  3.968068E-01  1.888166E+00  8.758610E+00
        10   7 -1.356962E+00 -3.452076E+00  1.182255E+02  2.354841E-03  8.159060E-03  2.589006E+01
        10   8 -1.812993E+00 -4.372272E+00  1.177458E+02  1.645726E-01  1.585112E-01  2.951807E+01
        11   1 -1.267155E+00 -2.236129E+00 -1.324269E+02 -8.388642E-01 -7.801171E-01  2.438679E+01
        11   2 -3.841227E-01 -6.103043E-01 -1.311073E+02  1.530898E+00 -3.249481E-01  2.092484E+01
        11   3 -5.586013E+00 -1.185786E+01 -4.945233E+02 -7.011392E-01 -1.394437E+00  1.473004E+01
        11   4 -4.257935E+00 -1.016050E+01 -4.917864E+02  1.668594E+00  2.513339E-01  1.195833E+01
        11   5  1.812993E+00  4.372272E+00 -1.177458E+02 -1.645726E-01  1.585112E-01  2.951807E+01
        11   6  1.356962E+00  3.452076E+00 -1.182255E+02 -2.354841E-03  8.159060E-03  2.589006E+01
        11   7  1.861144E+00  4.065333E+00 -4.435688E+02 -3.968068E-01  1.888166E+00  8.758610E+00
        11   8  1.027965E+00  2.878610E+00 -4.447110E+02 -2.556048E-01  1.274101E+00  7.833264E+00
        12   1 -3.841227E-01 -6.103043E-01 -1.311073E+02 -1.530898E+00  3.249481E-01  2.092484E+01
        12   2 -1.267155E+00 -2.236129E+00 -1.324269E+02  8.388642E-01  7.801171E-01  2.438679E+01
        12   3 -4.257935E+00 -1.016050E+01 -4.917864E+02 -1.668594E+00 -2.513339E-01  1.195833E+01
        12   4 -5.586013E+00 -1.185786E+01 -4.945233E+02  7.011392E-01  1.394437E+00  1.473004E+01
        12   5  1.356962E+00  3.452076E+00 -1.182255E+02  2.354841E-03 -8.159060E-03  2.589006E+01
        12   6  1.812993E+00  4.372272E+00 -1.177458E+02  1.645726E-01 -1.585112E-01  2.951807E+01
        12   7  1.027965E+00  2.878610E+00 -4.447110E+02  2.556048E-01 -1.274101E+00  7.833264E+00
        12   8  1.861144E+00  4.065333E+00 -4.435688E+02  3.968068E-01 -1.888166E+00  8.758610E+00
        13   1  7.049275E-01  1.424981E+00  4.078098E+02  6.615626E-01 -4.664290E-01  1.269145E+01
        13   2  3.915660E-01  5.402753E-01  4.072071E+02 -1.589971E-01 -6.880280E-01  1.052124E+01
        13   3  1.829955E+00  4.357213E+00  1.108461E+02  4.142021E-01  1.870400E-01  2.603726E+01
        13   4  1.591241E+00  3.743237E+00  1.105457E+02 -4.063654E-01  1.278121E-01  2.275006E+01
        13   5 -6.774439E-01 -1.692622E+00  3.587091E+02 -2.221209E-01 -1.216888E+00  1.024650E+01
        13   6 -3.820366E-01 -1.009959E+00  3.590244E+02 -5.645651E-02 -1.019213E+00  8.744851E+00
        13   7 -8.497969E-01 -1.868614E+00  9.537968E+01 -4.558003E-02  1.792802E-03  2.825430E+01
        13   8 -5.870618E-01 -1.273177E+00  9.566357E+01  4.165241E-02  5.490898E-02  2.475434E+01
        14   1  3.915660E-01  5.402753E-01  4.072071E+02  1.589971E-01  6.880280E-01  1.052124E+01
        14   2  7.049275E-01  1.424981E+00  4.078098E+02 -6.615626E-01  4.664290E-01  1.269145E+01
        14   3  1.591241E+00  3.743237E+00  1.105457E+02  4.063654E-01 -1.278121E-01  2.275006E+01
        14   4  1.829955E+00  4.357213E+00  1.108461E+02 -4.142021E-01 -1.870400E-01  2.603726E+01
        14   5 -3.820366E-01 -1.009959E+00  3.590244E+02  5.645651E-02  1.019213E+00  8.744851E+00
        14   6 -6.774439E-01 -1.692622E+00  3.587091E+02  2.221209E-01  1.216888E+00  1.024650E+01
        14   7 -5.870618E-01 -1.273177E+00  9.566357E+01 -4.165241E-02 -5.490898E-02  2.475434E+01
        14   8 -8.497969E-01 -1.868614E+00  9.537968E+01  4.558003E-02 -1.792802E-03  2.825430E+01
        15   1 -1.829955E+00 -4.357213E+00 -1.108461E+02  4.142021E-01 -1.870400E-01  2.603726E+01
        15   2 -1.591241E+00 -3.743237E+00 -1.105457E+02 -4.063654E-01 -1.278121E-01  2.275006E+01
        15   3 -7.049275E-01 -1.424981E+00 -4.078098E+02  6.615626E-01  4.664290E-01  1.269145E+01
        15   4 -3.915660E-01 -5.402753E-01 -4.072071E+02 -1.589971E-01  6.880280E-01  1.052124E+01
        15   5  8.497969E-01  1.868614E+00 -9.537968E+01 -4.558003E-02 -1.792802E-03  2.825430E+01
        15   6  5.870618E-01  1.273177E+00 -9.566357E+01  4.165241E-02 -5.490898E-02  2.475434E+01
        15   7  6.774439E-01  1.692622E+00 -3.587091E+02 -2.221209E-01  1.216888E+00  1.024650E+01
        15   8  3.820366E-01  1.009959E+00 -3.590244E+02 -5.645651E-02  1.019213E+00  8.744851E+00
        16   1 -1.591241E+00 -3.743237E+00 -1.105457E+02  4.063654E-01  1.278121E-01  2.275006E+01
        16   2 -1.829955E+00 -4.357213E+00 -1.108461E+02 -4.142021E-01  1.870400E-01  2.603726E+01
        16   3 -3.915660E-01 -5.402753E-01 -4.072071E+02  1.589971E-01 -6.880280E-01  1.052124E+01
        16   4 -7.049275E-01 -1.424981E+00 -4.078098E+02 -6.615626E-01 -4.664290E-01  1.269145E+01
        16   5  5.870618E-01  1.273177E+00 -9.566357E+01 -4.165241E-02  5.490898E-02  2.475434E+01
        16   6  8.497969E-01  1.868614E+00 -9.537968E+01  4.558003E-02  1.792802E-03  2.825430E+01
        16   7  3.820366E-01  1.009959E+00 -3.590244E+02  5.645651E-02 -1.019213E+00  8.744851E+00
        16   8  6.774439E-01  1.692622E+00 -3.587091E+02  2.221209E-01 -1.216888E+00  1.024650E+01
        17   1  6.413168E-01  1.668279E+00  3.227367E+02  6.236202E-02 -8.232133E-01  1.128360E+01
        17   2  3.982121E-01  1.107892E+00  3.225282E+02  2.176288E-01 -9.346105E-01  9.650999E+00
        17   3  5.261169E-01  1.186979E+00  8.688975E+01 -9.348498E-02  8.661182E-02  2.727400E+01
        17   4  2.490683E-01  5.542412E-01  8.661009E+01  6.178384E-02  7.310340E-02  2.379140E+01
        17   5 -6.028513E-01 -1.070175E+00  2.735410E+02 -5.072399E-02 -8.697986E-01  1.124650E+01
        17   6 -3.470231E-01 -6.824935E-01  2.736683E+02 -4.278954E-01 -9.896994E-01  9.309591E+00
        17   7 -5.721274E-01 -1.549357E+00  7.287756E+01  1.277125E-01  6.225744E-02  2.737047E+01
        17   8 -2.478300E-01 -8.368602E-01  7.315555E+01  4.325303E-02  4.647051E-02  2.407344E+01
        18   1  3.982121E-01  1.107892E+00  3.225282E+02 -2.176288E-01  9.346105E-01  9.650999E+00
        18   2  6.413168E-01  1.668279E+00  3.227367E+02 -6.236202E-02  8.232133E-01  1.128360E+01
        18   3  2.490683E-01  5.542412E-01  8.661009E+01 -6.178384E-02 -7.310340E-02  2.379140E+01
        18   4  5.261169E-01  1.186979E+00  8.688975E+01  9.348498E-02 -8.661182E-02  2.727400E+01
        18   5 -3.470231E-01 -6.824935E-01  2.736683E+02  4.278954E-01  9.896994E-01  9.309591E+00
        18   6 -6.028513E-01 -1.070175E+00  2.735410E+02  5.072399E-02  8.697986E-01  1.124650E+01
        18   7 -2.478300E-01 -8.368602E-01  7.315555E+01 -4.325303E-02 -4.647051E-02  2.407344E+01
        18   8 -5.721274E-01 -1.549357E+00  7.287756E+01 -1.277125E-01 -6.225744E-02  2.737047E+01
        19   1 -5.261169E-01 -1.186979E+00 -8.688975E+01 -9.348498E-02 -8.661182E-02  2.727400E+01
        19   2 -2.490683E-01 -5.542412E-01 -8.661009E+01  6.178384E-02 -7.310340E-02  2.379140E+01
        19   3 -6.413168E-01 -1.668279E+00 -3.227367E+02  6.236202E-02  8.232133E-01  1.128360E+01
        19   4 -3.982121E-01 -1.107892E+00 -3.225282E+02  2.176288E-01  9.346105E-01  9.650999E+00
        19   5  5.721274E-01  1.549357E+00 -7.287756E+01  1.277125E-01 -6.225744E-02  2.737047E+01
        19   6  2.478300E-01  8.368602E-01 -7.315555E+01  4.325303E-02 -4.647051E-02  2.407344E+01
        19   7  6.028513E-01  1.070175E+00 -2.735410E+02 -5.072399E-02  8.697986E-01  1.124650E+01
        19   8  3.470231E-01  6.824935E-01 -2.736683E+02 -4.278954E-01  9.896994E-01  9.309591E+00
        20   1 -2.490683E-01 -5.542412E-01 -8.661009E+01 -6.178384E-02  7.310340E-02  2.379140E+01
        20   2 -5.261169E-01 -1.186979E+00 -8.688975E+01  9.348498E-02  8.661182E-02  2.727400E+01
        20   3 -3.982121E-01 -1.107892E+00 -3.225282E+02 -2.176288E-01 -9.346105E-01  9.650999E+00
        20   4 -6.413168E-01 -1.668279E+00 -3.227367E+02 -6.236202E-02 -8.232133E-01  1.128360E+01
        20   5  2.478300E-01  8.368602E-01 -7.315555E+01 -4.325303E-02  4.647051E-02  2.407344E+01
        20   6  5.721274E-01  1.549357E+00 -7.287756E+01 -1.277125E-01  6.225744E-02  2.737047E+01
        20   7  3.470231E-01  6.824935E-01 -2.736683E+02  4.278954E-01 -9.896994E-01  9.309591E+00
        20   8  6.028513E-01  1.070175E+00 -2.735410E+02  5.072399E-02 -8.697986E-01  1.124650E+01
        21   1  6.166273E-01  1.419620E+00  2.375498E+02  2.640370E-01 -1.156353E+00  1.061771E+01