
 displacements (vx,vy,vz) for set NALL and time  0.1000000E+01

         1  0.000000E+00  0.000000E+00  0.000000E+00
         2  0.000000E+00  0.000000E+00  0.000000E+00
         3  0.000000E+00  0.000000E+00  0.000000E+00
         4  0.000000E+00  0.000000E+00  0.000000E+00
         5  3.012640E-01 -1.773417E-01 -1.249427E-03
         6  1.773395E-01  3.012617E-01 -1.248417E-03
         7 -3.012640E-01  1.773417E-01 -1.249427E-03
         8 -1.773395E-01 -3.012617E-01 -1.248417E-03
         9  0.000000E+00  0.000000E+00  0.000000E+00
        10  0.000000E+00  0.000000E+00  0.000000E+00
        11  0.000000E+00  0.000000E+00  0.000000E+00
        12  0.000000E+00  0.000000E+00  0.000000E+00
        13  0.000000E+00  0.000000E+00  0.000000E+00
        14  0.000000E+00  0.000000E+00  0.000000E+00
        15  0.000000E+00  0.000000E+00  0.000000E+00
        16  0.000000E+00  0.000000E+00  0.000000E+00
        17  0.000000E+00  0.000000E+00  0.000000E+00
        18  0.000000E+00  0.000000E+00  0.000000E+00
        19  0.000000E+00  0.000000E+00  0.000000E+00
        20  0.000000E+00  0.000000E+00  0.000000E+00
        21  2.484092E-01 -5.838991E-02 -7.128500E-03
        22  2.094405E-01  4.532911E-02 -1.527914E-03
        23  1.953034E-01  1.637104E-01  4.180158E-03
        24  5.838941E-02  2.484084E-01 -7.127942E-03
        25 -4.532893E-02  2.094406E-01 -1.528001E-03
        26 -1.637110E-01  1.953046E-01  4.180093E-03
        27 -2.484092E-01  5.838991E-02 -7.128500E-03
        28 -2.094405E-01 -4.532911E-02 -1.527914E-03
        29 -1.953034E-01 -1.637104E-01  4.180158E-03
        30 -5.838942E-02 -2.484084E-01 -7.127942E-03
        31  4.532893E-02 -2.094406E-01 -1.528001E-03
        32  1.637110E-01 -1.953046E-01  4.180093E-03
        33  1.216098E-02  1.259552E-02 -6.289100E-05
        34  2.592001E-02  2.743687E-02 -1.460063E-04
        35  3.953166E-02  4.308854E-02 -2.401725E-04
        36  5.223466E-02  5.852903E-02 -3.304682E-04
        37  6.440185E-02  7.417075E-02 -4.033006E-04
        38  7.625539E-02  9.039925E-02 -4.903208E-04
        39  8.763786E-02  1.068449E-01 -5.682597E-04
        40  9.862400E-02  1.239292E-01 -6.568778E-04
        41  1.088889E-01  1.405724E-01 -7.067626E-04
        42  1.189061E-01  1.584856E-01 -8.520843E-04
        43  1.283589E-01  1.757295E-01 -9.094223E-04
        44  1.381495E-01  1.965361E-01 -1.010158E-03
        45  1.449203E-01  2.096288E-01 -9.126658E-04
        46  1.529745E-01  2.307662E-01 -1.398986E-03
        47  1.618653E-01  2.507377E-01 -1.176596E-03
        48  2.507378E-01 -1.618652E-01 -1.176861E-03
        49  2.307661E-01 -1.529748E-01 -1.398971E-03
        50  2.096288E-01 -1.449202E-01 -9.126289E-04
        51  1.965361E-01 -1.381497E-01 -1.010205E-03
        52  1.757295E-01 -1.283589E-01 -9.094246E-04
        53  1.584855E-01 -1.189062E-01 -8.520904E-04
        54  1.405724E-01 -1.088889E-01 -7.067578E-04
        55  1.239292E-01 -9.862402E-02 -6.568830E-04
        56  1.068449E-01 -8.763786E-02 -5.682591E-04
        57  9.039925E-02 -7.625540E-02 -4.903226E-04
        58  7.417075E-02 -6.440185E-02 -4.033000E-04
        59  5.852903E-02 -5.223466E-02 -3.304690E-04
        60  4.308854E-02 -3.953166E-02 -2.401723E-04
        61  2.743687E-02 -2.592001E-02 -1.460067E-04
        62  1.259552E-02 -1.216098E-02 -6.289083E-05
        63 -1.259552E-02  1.216098E-02 -6.289082E-05
        64 -2.743687E-02  2.592001E-02 -1.460067E-04
        65 -4.308854E-02  3.953166E-02 -2.401723E-04
        66 -5.852903E-02  5.223466E-02 -3.304689E-04
        67 -7.417075E-02  6.440185E-02 -4.033000E-04
        68 -9.039925E-02  7.625540E-02 -4.903225E-04
        69 -1.068449E-01  8.763786E-02 -5.682591E-04
        70 -1.239292E-01  9.862402E-02 -6.568829E-04
        71 -1.405724E-01  1.088889E-01 -7.067577E-04
        72 -1.584855E-01  1.189062E-01 -8.520903E-04
        73 -1.757295E-01  1.283589E-01 -9.094245E-04
        74 -1.965361E-01  1.381497E-01 -1.010205E-03
        75 -2.096288E-01  1.449202E-01 -9.126288E-04
        76 -2.307661E-01  1.529748E-01 -1.398971E-03
        77 -2.507378E-01  1.618652E-01 -1.176861E-03
        78 -1.216098E-02 -1.259552E-02 -6.289101E-05
        79 -2.592001E-02 -2.743687E-02 -1.460063E-04
        80 -3.953166E-02 -4.308854E-02 -2.401725E-04
        81 -5.223466E-02 -5.852903E-02 -3.304682E-04
        82 -6.440185E-02 -7.417075E-02 -4.033006E-04
        83 -7.625539E-02 -9.039925E-02 -4.903209E-04
        84 -8.763786E-02 -1.068449E-01 -5.682597E-04
        85 -9.862400E-02 -1.239292E-01 -6.568778E-04
        86 -1.088889E-01 -1.405724E-01 -7.067626E-04
        87 -1.189061E-01 -1.584856E-01 -8.520843E-04
        88 -1.283589E-01 -1.757295E-01 -9.094224E-04
        89 -1.381495E-01 -1.965361E-01 -1.010158E-03
        90 -1.449203E-01 -2.096288E-01 -9.126659E-04
        91 -1.529745E-01 -2.307662E-01 -1.398986E-03
        92 -1.618653E-01 -2.507377E-01 -1.176596E-03
        93  0.000000E+00  0.000000E+00  0.000000E+00
        94  0.000000E+00  0.000000E+00  0.000000E+00
        95  0.000000E+00  0.000000E+00  0.000000E+00
        96  0.000000E+00  0.000000E+00  0.000000E+00
        97  0.000000E+00  0.000000E+00  0.000000E+00
        98  1.072647E-01  2.402308E-02 -1.197382E-03
        99  2.402301E-02 -1.072649E-01 -1.197341E-03
       100 -4.283882E-10 -1.972292E-10 -1.063785E-03
       101 -2.402301E-02  1.072649E-01 -1.197341E-03
       102 -1.072647E-01 -2.402308E-02 -1.197382E-03
       103  1.301946E-02  2.186416E-04 -6.975782E-05
       104  2.706350E-02 -1.259121E-02 -2.818278E-03
       105  2.676745E-02  7.413810E-04 -1.447193E-04
       106  2.633463E-02  1.416423E-02  2.519671E-03
       107  4.114933E-02  1.738534E-03 -2.460221E-04
       108  5.693347E-02 -2.451910E-02 -2.312583E-03
       109  5.534669E-02  3.112679E-03 -3.240278E-04
       110  5.381237E-02  3.082549E-02  1.661984E-03
       111  6.934721E-02  4.879346E-03 -4.068526E-04
       112  8.681787E-02 -3.461006E-02 -2.641758E-03
       113  8.326785E-02  7.009286E-03 -4.779407E-04
       114  7.976213E-02  4.874803E-02  1.671440E-03
       115  9.728485E-02  9.607440E-03 -5.698785E-04
       116  1.174247E-01 -4.302220E-02 -2.775887E-03
       117  1.109961E-01  1.248074E-02 -6.342861E-04
       118  1.048239E-01  6.819784E-02  1.485306E-03
       119  1.249680E-01  1.593937E-02 -7.502767E-04
       120  1.483994E-01 -4.983050E-02 -2.889527E-03
       121  1.381744E-01  1.941450E-02 -7.638439E-04
       122  1.285188E-01  8.912148E-02  1.272299E-03
       123  1.523423E-01  2.387989E-02 -9.013372E-04
       124  1.801413E-01 -5.478245E-02 -3.311139E-03
       125  1.645456E-01  2.764434E-02 -9.066288E-04
       126  1.514476E-01  1.115323E-01  1.389157E-03
       127  1.797018E-01  3.363591E-02 -1.177808E-03
       128  2.114200E-01 -6.002758E-02 -2.486806E-03
       129  1.889443E-01  3.662230E-02 -9.243064E-04
       130  1.705345E-01  1.361326E-01  1.900341E-04
       131  2.069831E-01  4.509059E-02 -1.264169E-03
       132 -2.186416E-04  1.301946E-02 -6.975783E-05
       133  1.259121E-02  2.706350E-02 -2.818278E-03
       134 -7.413809E-04  2.676745E-02 -1.447193E-04
       135 -1.416423E-02  2.633463E-02  2.519671E-03
       136 -1.738534E-03  4.114933E-02 -2.460221E-04
       137  2.451910E-02  5.693347E-02 -2.312582E-03
       138 -3.112678E-03  5.534669E-02 -3.240277E-04
       139 -3.082549E-02  5.381237E-02  1.661984E-03
       140 -4.879346E-03  6.934722E-02 -4.068527E-04
       141  3.461006E-02  8.681786E-02 -2.641757E-03
       142 -7.009284E-03  8.326785E-02 -4.779408E-04
       143 -4.874803E-02  7.976213E-02  1.671439E-03
       144 -9.607441E-03  9.728486E-02 -5.698783E-04
       145  4.302219E-02  1.174247E-01 -2.775884E-03
       146 -1.248074E-02  1.109960E-01 -6.342862E-04
       147 -6.819783E-02  1.048239E-01  1.485304E-03
       148 -1.593938E-02  1.249680E-01 -7.502768E-04
       149  4.983048E-02  1.483994E-01 -2.889524E-03
       150 -1.941449E-02  1.381744E-01 -7.638444E-04
       151 -8.912147E-02  1.285188E-01  1.272290E-03
       152 -2.387990E-02  1.523423E-01 -9.013390E-04
       153  5.478244E-02  1.801413E-01 -3.311123E-03
       154 -2.764430E-02  1.645456E-01 -9.066463E-04
       155 -1.115323E-01  1.514477E-01  1.389154E-03
       156 -3.363595E-02  1.797018E-01 -1.177785E-03
       157  6.002742E-02  2.114199E-01 -2.486831E-03
       158 -3.662211E-02  1.889443E-01 -9.243463E-04
       159 -1.361326E-01  1.705346E-01  1.899081E-04
       160 -4.509072E-02  2.069831E-01 -1.264101E-03
       161 -1.301946E-02 -2.186416E-04 -6.975782E-05
       162 -2.706350E-02  1.259121E-02 -2.818278E-03
       163 -2.676745E-02 -7.413810E-04 -1.447193E-04
       164 -2.633463E-02 -1.416423E-02  2.519671E-03
       165 -4.114933E-02 -1.738534E-03 -2.460221E-04
       166 -5.693347E-02  2.451910E-02 -2.312583E-03
       167 -5.534669E-02 -3.112679E-03 -3.240278E-04
       168 -5.381237E-02 -3.082549E-02  1.661984E-03
       169 -6.934721E-02 -4.879346E-03 -4.068526E-04
       170 -8.681787E-02  3.461006E-02 -2.641758E-03
       171 -8.326785E-02 -7.009286E-03 -4.779407E-04
       172 -7.976213E-02 -4.874803E-02  1.671440E-03
       173 -9.728485E-02 -9.607440E-03 -5.698785E-04
       174 -1.174247E-01  4.302220E-02 -2.775887E-03
       175 -1.109961E-01 -1.248074E-02 -6.342861E-04
       176 -1.048239E-01 -6.819784E-02  1.485306E-03
       177 -1.249680E-01 -1.593937E-02 -7.502767E-04
       178 -1.483994E-01  4.983050E-02 -2.889527E-03
       179 -1.381744E-01 -1.941450E-02 -7.638439E-04
       180 -1.285188E-01 -8.912148E-02  1.272299E-03
       181 -1.523423E-01 -2.387989E-02 -9.013372E-04
       182 -1.801413E-01  5.478245E-02 -3.311139E-03
       183 -1.645456E-01 -2.764434E-02 -9.066288E-04
       184 -1.514476E-01 -1.115323E-01  1.389157E-03
       185 -1.797018E-01 -3.363591E-02 -1.177808E-03
       186 -2.114200E-01  6.002758E-02 -2.486806E-03
       187 -1.889443E-01 -3.662230E-02 -9.243064E-04
       188 -1.705345E-01 -1.361326E-01  1.900340E-04
       189 -2.069831E-01 -4.509059E-02 -1.264169E-03
       190  2.186416E-04 -1.301946E-02 -6.975784E-05
       191 -1.259121E-02 -2.706350E-02 -2.818278E-03
       192  7.413809E-04 -2.676745E-02 -1.447193E-04
       193  1.416423E-02 -2.633463E-02  2.519671E-03
       194  1.738534E-03 -4.114933E-02 -2.460221E-04
       195 -2.451910E-02 -5.693347E-02 -2.312582E-03
       196  3.112678E-03 -5.534669E-02 -3.240278E-04
       197  3.082549E-02 -5.381237E-02  1.661984E-03
       198  4.879346E-03 -6.934722E-02 -4.068527E-04
       199 -3.461006E-02 -8.681786E-02 -2.641757E-03
       200  7.009284E-03 -8.326785E-02 -4.779409E-04
       201  4.874803E-02 -7.976213E-02  1.671439E-03
       202  9.607441E-03 -9.728486E-02 -5.698783E-04
       203 -4.302219E-02 -1.174247E-01 -2.775884E-03
       204  1.248074E-02 -1.109960E-01 -6.342862E-04
       205  6.819783E-02 -1.048239E-01  1.485304E-03
       206  1.593938E-02 -1.249680E-01 -7.502769E-04
       207 -4.983048E-02 -1.483994E-01 -2.889524E-03
       208  1.941449E-02 -1.381744E-01 -7.638445E-04
       209  8.912147E-02 -1.285188E-01  1.272290E-03
       210  2.387990E-02 -1.523423E-01 -9.013391E-04
       211 -5.478244E-02 -1.801413E-01 -3.311123E-03
       212  2.764429E-02 -1.645456E-01 -9.066464E-04
       213  1.115323E-01 -1.514477E-01  1.389154E-03
       214  3.363595E-02 -1.797018E-01 -1.177785E-03
       215 -6.002742E-02 -2.114199E-01 -2.486831E-03
       216  3.662210E-02 -1.889443E-01 -9.243464E-04
       217  1.361326E-01 -1.705346E-01  1.899080E-04
       218  4.509072E-02 -2.069831E-01 -1.264101E-03
       219 -1.450872E-12 -5.865177E-13 -1.014953E-04
       220  1.339002E-02  3.813614E-04 -1.502433E-04
       221  3.813613E-04 -1.339002E-02 -1.502433E-04
       222 -6.598063E-12 -2.500780E-12 -1.549443E-04
       223 -3.813613E-04  1.339002E-02 -1.502433E-04
       224 -1.339002E-02 -3.813614E-04 -1.502433E-04
       225 -1.495516E-11 -5.631491E-12 -2.397132E-04
       226  2.766905E-02  1.562457E-03 -3.250361E-04
       227  1.562457E-03 -2.766905E-02 -3.250362E-04
       228 -2.699431E-11 -1.024427E-11 -3.254792E-04
       229 -1.562457E-03  2.766905E-02 -3.250362E-04
       230 -2.766905E-02 -1.562457E-03 -3.250361E-04
       231 -4.234674E-11 -1.622485E-11 -4.034490E-04
       232  4.163280E-02  3.511497E-03 -4.854738E-04
       233  3.511496E-03 -4.163280E-02 -4.854736E-04
       234 -6.120325E-11 -2.379873E-11 -4.940056E-04
       235 -3.511496E-03  4.163280E-02 -4.854736E-04
       236 -4.163280E-02 -3.511497E-03 -4.854738E-04
       237 -8.337161E-11 -3.283399E-11 -5.618162E-04
       238  5.550170E-02  6.250865E-03 -6.527338E-04
       239  6.250864E-03 -5.550170E-02 -6.527345E-04
       240 -1.089797E-10 -4.363629E-11 -6.701523E-04
       241 -6.250864E-03  5.550169E-02 -6.527344E-04
       242 -5.550170E-02 -6.250866E-03 -6.527338E-04
       243 -1.378457E-10 -5.604771E-11 -7.151813E-04
       244  6.905288E-02  9.698278E-03 -8.093703E-04
       245  9.698267E-03 -6.905287E-02 -8.093690E-04
       246 -1.700900E-10 -7.037048E-11 -8.576615E-04
       247 -9.698268E-03  6.905287E-02 -8.093690E-04
       248 -6.905288E-02 -9.698278E-03 -8.093702E-04
       249 -2.054195E-10 -8.610850E-11 -8.625982E-04
       250  8.240538E-02  1.389605E-02 -9.964911E-04
       251  1.389604E-02 -8.240535E-02 -9.965007E-04
       252 -2.441956E-10 -1.039205E-10 -1.090644E-03
       253 -1.389604E-02  8.240535E-02 -9.965006E-04
       254 -8.240538E-02 -1.389605E-02 -9.964911E-04
       255 -2.862090E-10 -1.245275E-10 -9.613910E-04
       256  9.384084E-02  1.801149E-02 -1.081449E-03
       257  1.801137E-02 -9.384081E-02 -1.081477E-03
       258 -3.312267E-10 -1.457074E-10 -1.201336E-03
       259 -1.801137E-02  9.384081E-02 -1.081477E-03
       260 -9.384084E-02 -1.801149E-02 -1.081449E-03
       261 -3.776016E-10 -1.706444E-10 -1.305491E-03

 forces (fx,fy,fz) for set NALL and time  0.1000000E+01

         1  1.136124E+01 -1.252919E+01 -1.557308E+00
         2  1.252919E+01  1.136123E+01 -1.557310E+00
         3 -1.136124E+01  1.252919E+01 -1.557308E+00
         4 -1.252919E+01 -1.136123E+01 -1.557310E+00
         5  2.202598E+02 -6.463324E+01  6.047315E-06
         6  6.461514E+01  2.202480E+02  7.372271E-06
         7 -2.202598E+02  6.463324E+01  7.172989E-06
         8 -6.461514E+01 -2.202480E+02  7.382525E-06
         9 -9.920851E+01  7.927691E+01  9.492480E+01
        10  1.875704E+01  4.608138E-01 -1.810154E+00
        11 -1.015183E+02 -8.502575E+01 -9.652023E+01
        12 -7.927690E+01 -9.920851E+01  9.492480E+01
        13 -4.608163E-01  1.875704E+01 -1.810154E+00
        14  8.502574E+01 -1.015183E+02 -9.652023E+01
        15  9.920851E+01 -7.927691E+01  9.492480E+01
        16 -1.875704E+01 -4.608138E-01 -1.810154E+00
        17  1.015183E+02  8.502575E+01 -9.652023E+01
        18  7.927690E+01  9.920851E+01  9.492480E+01
        19  4.608163E-01 -1.875704E+01 -1.810154E+00
        20 -8.502574E+01  1.015183E+02 -9.652023E+01
        21  1.753038E-06 -1.204525E-05  1.359091E-05
        22  1.524696E-05 -3.498190E-06  1.924522E-06
        23 -1.112982E-05 -1.665597E-05  8.329117E-07
        24 -8.910752E-07  2.795329E-05  9.917474E-06
        25  4.046043E-06 -3.331474E-06  9.765054E-07
        26  1.638311E-05 -1.087256E-05  9.151682E-07
        27 -2.730782E-05 -8.647861E-07  9.821054E-06
        28  2.820590E-06  3.991708E-06  1.051459E-06
        29  1.114507E-05  1.667868E-05  8.332703E-07
        30  8.922499E-07 -2.798992E-05  9.929060E-06
        31  1.309599E-05  3.423942E-07  3.077237E-07
        32 -3.270242E-05  1.792110E-05 -2.104607E-06
        33  2.629583E-11 -2.702327E-11 -6.941438E-12
        34 -2.668235E-11  3.087045E-11  4.227033E-11
        35  1.730556E-10 -1.569900E-10 -2.766372E-11
        36 -6.201209E-11  9.222948E-11  1.472270E-10
        37  6.417561E-10 -5.197925E-10 -1.250789E-10
        38  5.068419E-11  5.346803E-11  6.508119E-10
        39  2.672849E-09 -1.923013E-09 -8.523839E-10
        40  1.150587E-09  4.196552E-10  3.968198E-09
        41  1.345535E-08 -8.257191E-09 -4.925058E-09
        42  1.094710E-08 -4.474878E-09  2.312465E-08
        43  8.364373E-08 -5.869270E-08 -3.866936E-08
        44  3.557681E-08  5.636970E-08  2.487955E-07
        45  6.377103E-07 -4.553897E-07 -3.572757E-07
        46  1.926790E-06  1.385857E-08  5.639195E-06
        47  1.405238E-05 -1.133482E-05 -9.821984E-06
        48 -2.053496E-05 -1.330126E-05 -8.756183E-06
        49  1.230973E-05 -8.255374E-07  6.158394E-06
        50 -4.483925E-07 -6.455816E-07 -3.639415E-07
        51  5.259008E-08 -3.434730E-08  2.463020E-07
        52 -5.281565E-08 -7.874827E-08 -3.372876E-08
        53 -6.712973E-09 -1.106285E-08  2.117894E-08
        54 -7.727416E-09 -1.483524E-08 -5.655021E-09
        55 -6.366512E-11 -7.331818E-10  4.205261E-09
        56 -1.548206E-09 -2.718691E-09 -7.537344E-10
        57 -9.218150E-11  8.047034E-11  6.425072E-10
        58 -4.678998E-10 -7.532184E-10 -1.732352E-10
        59  5.115891E-11  1.048529E-10  1.720655E-10
        60 -1.381216E-10 -1.904976E-10 -3.244188E-11
        61  2.628984E-11  4.051777E-11  4.665165E-11
        62 -2.470259E-11 -3.045246E-11 -9.001452E-12
        63  2.432080E-11  3.049148E-11 -8.943235E-12
        64 -2.558552E-11 -3.954517E-11  4.664045E-11
        65  1.379285E-10  1.903799E-10 -3.209518E-11
        66 -5.077368E-11 -1.033700E-10  1.727399E-10
        67  4.655024E-10  7.535923E-10 -1.737832E-10
        68  9.190463E-11 -8.038454E-11  6.447454E-10
        69  1.546637E-09  2.718589E-09 -7.589518E-10
        70  7.282354E-11  7.440404E-10  4.211680E-09
        71  7.723406E-09  1.483587E-08 -5.663068E-09
        72  6.732983E-09  1.108385E-08  2.119265E-08
        73  5.280647E-08  7.876020E-08 -3.375356E-08
        74 -5.250090E-08  3.444809E-08  2.463975E-07
        75  4.483208E-07  6.457947E-07 -3.639938E-07
        76  3.165065E-08  1.968300E-06  5.565437E-06
        77  1.124001E-05  1.386861E-05 -9.693498E-06
        78 -2.600706E-11  2.670819E-11 -6.483286E-12
        79  2.815087E-11 -3.157648E-11  4.196356E-11
        80 -1.721378E-10  1.567157E-10 -2.793280E-11
        81  6.512621E-11 -9.224807E-11  1.470070E-10
        82 -6.412960E-10  5.196102E-10 -1.250380E-10
        83 -4.595314E-11 -5.381482E-11  6.509081E-10
        84 -2.673545E-09  1.921708E-09 -8.560238E-10
        85 -1.147597E-09 -4.177663E-10  3.974019E-09
        86 -1.345609E-08  8.256262E-09 -4.933787E-09
        87 -1.096291E-08  4.476939E-09  2.314461E-08
        88 -8.367624E-08  5.873835E-08 -3.870664E-08
        89 -3.566326E-08 -5.637684E-08  2.490139E-07
        90 -6.381975E-07  4.557657E-07 -3.575858E-07
        91 -1.929497E-06 -1.386663E-08  5.645950E-06
        92 -1.406899E-05  1.134902E-05 -9.833336E-06
        93 -1.676591E+02 -3.768179E-01  4.714542E+00
        94 -3.768208E-01  1.676591E+02  4.714543E+00
        95  4.510426E-08  1.724072E-08  9.934137E-01
        96  3.768207E-01 -1.676591E+02  4.714543E+00
        97  1.676591E+02  3.768178E-01  4.714542E+00
        98 -7.872634E-06  2.576280E-05  3.743950E-06
        99 -3.377728E-07 -2.460635E-06  2.079336E-06
       100  1.175748E-05 -6.577620E-07  1.376908E-06
       101 -1.708599E-05 -9.012115E-07  1.845443E-06
       102  1.526357E-06 -1.715178E-05  1.818139E-06
       103  1.165091E-12 -3.140003E-11 -2.528930E-11
       104  2.228490E-11 -1.324522E-10 -5.406214E-11
       105 -7.628800E-13  5.758420E-11  1.141193E-10
       106 -1.569622E-11 -1.342408E-10 -5.131968E-11
       107  1.153666E-11 -2.297984E-10 -1.037711E-10
       108  1.379817E-10 -4.774030E-10 -2.109086E-10
       109 -3.365500E-11  1.372549E-10  3.736392E-10
       110 -2.474858E-11 -4.927613E-10 -1.693817E-10
       111  1.119603E-10 -6.520834E-10 -3.082141E-10
       112  6.688707E-10 -1.374412E-09 -7.803133E-10
       113  3.464094E-11  1.740997E-10  1.333152E-09
       114 -3.370490E-10 -1.358022E-09 -8.340217E-10
       115  8.078988E-11 -1.717573E-09 -1.091871E-09
       116  3.056638E-09 -2.790127E-09 -5.166197E-09
       117  5.436293E-10 -4.505123E-10  7.227940E-09
       118 -1.845154E-09 -5.287481E-09 -4.252895E-09
       119  1.372684E-09 -5.269600E-09 -6.116060E-09
       120  3.067014E-08 -1.699058E-08 -2.149297E-08
       121  1.985847E-09 -5.817355E-09  3.574751E-08
       122 -1.976906E-08 -2.491548E-08 -3.033073E-08
       123  5.392018E-09 -2.673832E-08 -2.794731E-08
       124  1.633668E-07  3.771889E-08 -2.409951E-07
       125  2.183574E-08 -3.338996E-08  3.651853E-07
       126 -4.929640E-08 -2.633114E-07 -2.354981E-07
       127  1.541797E-07 -2.440062E-07 -3.889028E-07
       128 -7.095887E-06 -3.402775E-06 -6.590217E-06
       129  9.015142E-06 -1.198728E-06  7.840476E-06
       130 -4.670742E-06 -6.196009E-06 -6.257660E-06
       131  1.026418E-05 -4.008756E-06 -1.060275E-05
       132  4.775793E-11 -7.530400E-13 -8.622584E-12
       133  1.338753E-10  2.847320E-11 -5.111724E-11
       134 -8.914884E-11 -8.460069E-12  6.674768E-11
       135  1.342796E-10 -8.133379E-12 -4.647683E-11
       136  2.724598E-10  1.961356E-11 -2.149945E-11
       137  4.767321E-10  1.160780E-10 -1.839016E-10
       138 -2.580599E-10  6.373381E-12  2.249621E-10
       139  5.050683E-10 -4.584175E-11 -1.816799E-10
       140  8.240033E-10  4.334135E-11 -9.467519E-11
       141  1.342413E-09  7.561291E-10 -8.174516E-10
       142 -4.008769E-10 -2.002742E-10  8.458670E-10
       143  1.322997E-09 -2.446199E-10 -7.074740E-10
       144  1.988829E-09  4.974913E-10 -2.922713E-10
       145  2.955039E-09  2.804722E-09 -4.787028E-09
       146 -9.330574E-10  1.061250E-09  6.085431E-09
       147  5.465257E-09 -2.213280E-09 -4.629047E-09
       148  7.263587E-09  2.289751E-10 -4.747587E-09
       149  1.648173E-08  3.240406E-08 -2.349483E-08
       150  6.574303E-09 -4.073604E-09  3.140099E-08
       151  2.316154E-08 -1.801833E-08 -2.710631E-08
       152  2.457509E-08  1.674505E-08 -1.988132E-08
       153 -3.344828E-08  1.663476E-07 -2.358728E-07
       154  1.780842E-08  2.019409E-08  3.562117E-07
       155  2.630900E-07 -5.455464E-08 -2.402728E-07
       156  2.632506E-07  1.453101E-07 -3.796543E-07
       157 -2.627167E-06  8.549920E-06 -4.317815E-06
       158  1.530545E-06 -2.038515E-06  7.752303E-06
       159  6.116668E-06 -4.633751E-06 -6.168658E-06
       160  2.024300E-06  5.999602E-06 -8.703628E-06
       161 -1.521974E-12  3.126275E-11 -2.522730E-11
       162 -2.311363E-11  1.337405E-10 -5.487034E-11
       163  2.088080E-12 -5.740128E-11  1.139792E-10
       164  1.304064E-11  1.330853E-10 -5.111042E-11
       165 -1.346160E-11  2.295480E-10 -1.028920E-10
       166 -1.380988E-10  4.764058E-10 -2.116747E-10
       167  3.718812E-11 -1.368931E-10  3.735808E-10
       168  1.908310E-11  4.928517E-10 -1.695383E-10
       169 -1.105353E-10  6.520591E-10 -3.077012E-10
       170 -6.659845E-10  1.371326E-09 -7.825754E-10
       171 -3.205790E-11 -1.715693E-10  1.333039E-09
       172  3.289904E-10  1.353693E-09 -8.350985E-10
       173 -7.967019E-11  1.716925E-09 -1.091666E-09
       174 -3.076197E-09  2.783572E-09 -5.170481E-09
       175 -5.305520E-10  4.576140E-10  7.227396E-09
       176  1.837072E-09  5.280076E-09 -4.255548E-09
       177 -1.368020E-09  5.267487E-09 -6.113827E-09
       178 -3.069480E-08  1.697449E-08 -2.149905E-08
       179 -1.996307E-09  5.830533E-09  3.574674E-08
       180  1.978969E-08  2.492084E-08 -3.034684E-08
       181 -5.358769E-09  2.672737E-08 -2.793976E-08
       182 -1.634287E-07 -3.779082E-08 -2.410712E-07
       183 -2.203182E-08  3.338499E-08  3.653373E-07
       184  4.941424E-08  2.635182E-07 -2.356465E-07
       185 -1.538341E-07  2.441858E-07 -3.891318E-07
       186 -8.499832E-06 -2.588421E-06 -4.262938E-06
       187  1.848651E-06  1.406808E-06  7.832530E-06
       188  4.677072E-06  6.204266E-06 -6.265249E-06
       189 -5.678843E-06  2.273193E-06 -8.874914E-06
       190 -4.746597E-11  9.577721E-13 -8.375284E-12
       191 -1.325622E-10 -2.661705E-11 -5.045809E-11
       192  8.924637E-11  7.633844E-12  6.645692E-11
       193 -1.334032E-10  6.429232E-12 -4.603865E-11
       194 -2.727407E-10 -1.857839E-11 -2.325769E-11
       195 -4.780877E-10 -1.145011E-10 -1.845437E-10
       196  2.586196E-10 -5.983455E-12  2.247007E-10
       197 -5.064892E-10  4.368400E-11 -1.808817E-10
       198 -8.240375E-10 -4.292125E-11 -9.452565E-11
       199 -1.343466E-09 -7.547052E-10 -8.173834E-10
       200  4.031665E-10  2.025263E-10  8.443542E-10
       201 -1.327480E-09  2.431320E-10 -7.067872E-10
       202 -1.989128E-09 -4.971300E-10 -2.913153E-10
       203 -2.954303E-09 -2.806307E-09 -4.788547E-09
       204  9.390211E-10 -1.052497E-09  6.087232E-09
       205 -5.465249E-09  2.199879E-09 -4.631640E-09
       206 -7.262870E-09 -2.289202E-10 -4.748846E-09
       207 -1.647648E-08 -3.243059E-08 -2.350428E-08
       208 -6.579337E-09  4.115034E-09  3.140833E-08
       209 -2.316515E-08  1.799353E-08 -2.710349E-08
       210 -2.456874E-08 -1.679708E-08 -1.988830E-08
       211  3.359243E-08 -1.665973E-07 -2.360666E-07
       212 -1.791815E-08 -1.983662E-08  3.563491E-07
       213 -2.631929E-07  5.440491E-08 -2.401996E-07
       214 -2.632200E-07 -1.458079E-07 -3.798448E-07
       215  2.630683E-06 -8.561264E-06 -4.323100E-06
       216  8.964518E-06  4.249699E-07  8.340930E-06
       217 -1.646255E-05  6.996820E-06 -4.373870E-06
       218 -3.499231E-06 -9.845300E-06 -7.199059E-06
       219 -1.462146E-13  3.386727E-13 -4.806181E-11
       220 -7.131180E-12  3.637289E-11 -1.222369E-10
       221  2.740777E-11  2.624879E-12 -1.149080E-10
       222  7.137468E-13  5.058393E-13  1.823412E-10
       223 -2.845199E-11 -2.551808E-12 -1.143709E-10
       224  5.172446E-12 -3.730856E-11 -1.218079E-10
       225  2.247282E-13  6.280991E-13 -1.729832E-10
       226 -2.275684E-11  1.968082E-10 -3.256467E-10
       227  1.574373E-10  4.578638E-11 -3.168624E-10
       228  1.601583E-13 -7.054236E-13  5.201858E-10
       229 -1.573066E-10 -4.663795E-11 -3.170398E-10
       230  2.367231E-11 -1.956638E-10 -3.267157E-10
       231  6.444385E-13 -4.620956E-14 -3.986880E-10
       232 -1.670583E-10  1.141203E-09 -1.034871E-09
       233  1.045739E-09  8.627754E-11 -9.367676E-10
       234  7.365298E-13 -1.679571E-12  1.679917E-09
       235 -1.047471E-09 -8.085816E-11 -9.374391E-10
       236  1.696899E-10 -1.140629E-09 -1.033741E-09
       237 -2.164406E-13  7.430241E-13 -1.174551E-09
       238 -2.329628E-09  5.886205E-09 -4.812560E-09
       239  5.462950E-09  2.465198E-09 -4.893492E-09
       240  1.225989E-12  1.385258E-12  8.772186E-09
       241 -5.475810E-09 -2.466490E-09 -4.893230E-09
       242  2.336632E-09 -5.886786E-09 -4.810794E-09
       243  1.115195E-12  4.874502E-12 -6.267079E-09
       244 -1.089140E-08  4.621828E-08 -2.691285E-08
       245  4.639099E-08  8.490141E-09 -2.550229E-08
       246 -1.336713E-11  1.493930E-11  4.864953E-08
       247 -4.638116E-08 -8.511026E-09 -2.549399E-08
       248  1.091013E-08 -4.623399E-08 -2.690802E-08
       249  2.327940E-11 -9.043460E-12 -3.730587E-08
       250 -1.928153E-07  3.054282E-07 -2.291531E-07
       251  3.005874E-07  1.848837E-07 -2.318066E-07
       252 -2.754970E-10  2.715012E-10  4.261569E-07
       253 -3.004051E-07 -1.851436E-07 -2.317195E-07
       254  1.930984E-07 -3.056613E-07 -2.292770E-07
       255  3.406737E-10 -3.094314E-10 -2.867409E-07
       256 -2.601561E-06  1.442292E-05 -7.837840E-06
       257 -1.123956E-06  9.104443E-08 -4.966747E-06
       258  6.370490E-06 -1.986031E-06  1.051973E-05
       259 -7.646494E-06 -1.101600E-06 -4.719720E-06
       260  1.184261E-06 -7.612964E-06 -4.750861E-06
       261  1.398211E-07  5.800607E-06 -1.019206E-05

 stresses (elem, integ.pnt.,sxx,syy,szz,sxy,sxz,syz) for set EALL and time  0.1000000E+01

         1   1  1.580135E+02 -4.888802E+01  3.738684E+01 -4.597399E+01  1.375932E+03 -1.329060E+03
         1   2  1.016930E+02 -1.019784E+02 -2.196767E+02 -4.909070E+01  1.738096E+03 -2.936832E+02
         1   3  7.822126E+01  1.231216E+01  2.390110E+02  1.950946E+01  3.446602E+02 -1.735596E+03
         1   4 -1.375207E+01 -6.952739E+01 -6.055996E+01 -4.129648E+00  4.258791E+02 -4.163194E+02
         1   5  1.277883E+02 -8.413898E+01  1.818521E+01 -2.924452E+01  1.016071E+03 -9.425211E+02
         1   6  1.383342E+02 -1.101078E+02 -1.922218E+02 -4.005164E+01  2.168109E+03 -1.377710E+01
         1   7  3.876226E+01 -1.391826E+01  2.384434E+02  1.333060E+01  1.828441E+02 -2.168849E+03
         1   8 -4.152776E+01 -1.011361E+02 -6.514787E+01 -4.412905E+00  4.297390E+02 -4.011074E+02
         2   1  1.231232E+01  7.822136E+01  2.390110E+02 -1.950946E+01  1.735596E+03  3.446602E+02
         2   2 -4.888785E+01  1.580137E+02  3.738688E+01  4.597396E+01  1.329060E+03  1.375932E+03
         2   3 -6.952734E+01 -1.375201E+01 -6.055993E+01  4.129669E+00  4.163194E+02  4.258791E+02
         2   4 -1.019783E+02  1.016931E+02 -2.196766E+02  4.909069E+01  2.936832E+02  1.738096E+03
         2   5 -1.391844E+01  3.876216E+01  2.384433E+02 -1.333062E+01  2.168849E+03  1.828441E+02
         2   6 -8.413920E+01  1.277881E+02  1.818524E+01  2.924456E+01  9.425211E+02  1.016071E+03
         2   7 -1.011361E+02 -4.152784E+01 -6.514790E+01  4.412863E+00  4.011074E+02  4.297390E+02
         2   8 -1.101079E+02  1.383340E+02 -1.922218E+02  4.005166E+01  1.377709E+01  2.168109E+03
         3   1 -1.019783E+02  1.016931E+02 -2.196766E+02  4.909069E+01 -2.936832E+02 -1.738096E+03
         3   2 -6.952734E+01 -1.375201E+01 -6.055993E+01  4.129669E+00 -4.163194E+02 -4.258791E+02
         3   3 -4.888785E+01  1.580137E+02  3.738688E+01  4.597396E+01 -1.329060E+03 -1.375932E+03
         3   4  1.231232E+01  7.822136E+01  2.390110E+02 -1.950946E+01 -1.735596E+03 -3.446602E+02
         3   5 -1.101079E+02  1.383340E+02 -1.922218E+02  4.005166E+01 -1.377709E+01 -2.168109E+03