
 displacements (vx,vy,vz) for set N1 and time  0.1000000E-03

       100  4.893516E-08 -5.868182E-02 -9.718221E-09
