
 displacements (vx,vy,vz) for set N1 and time  0.1000000E-03

       100  1.886912E-08 -5.872788E-02 -1.842000E-08
