
 displacements (vx,vy,vz) for set NALL and time  0.1000000E+01

         1  0.000000E+00  0.000000E+00  0.000000E+00
         2 -7.423281E-02  0.000000E+00  0.000000E+00
         3 -7.423281E-02 -7.423281E-02  0.000000E+00
         4 -3.339397E-11 -7.423281E-02  0.000000E+00
         5 -1.041185E-10  4.018857E-11  1.415438E+00
         6 -7.423281E-02  3.580697E-11  1.415438E+00
         7 -7.423281E-02 -7.423281E-02  1.415438E+00
         8 -1.002729E-10 -7.423281E-02  1.415438E+00
         9 -1.855820E-02  1.082980E-11  0.000000E+00
        10 -3.711640E-02  1.237082E-11  0.000000E+00
        11 -5.567461E-02  1.052005E-11  0.000000E+00
        12 -7.423281E-02 -1.855820E-02  0.000000E+00
        13 -7.423281E-02 -3.711640E-02  0.000000E+00
        14 -7.423281E-02 -5.567461E-02  0.000000E+00
        15 -5.567461E-02 -7.423281E-02  0.000000E+00
        16 -3.711640E-02 -7.423281E-02  0.000000E+00
        17 -1.855820E-02 -7.423281E-02  0.000000E+00
        18 -3.374521E-11 -5.567461E-02  0.000000E+00
        19 -3.257991E-11 -3.711640E-02  0.000000E+00
        20 -2.365458E-11 -1.855820E-02  0.000000E+00
        21 -1.855820E-02  3.924925E-11  1.415438E+00
        22 -3.711640E-02  3.804753E-11  1.415438E+00
        23 -5.567461E-02  3.681705E-11  1.415438E+00
        24 -7.423281E-02 -1.855820E-02  1.415438E+00
        25 -7.423281E-02 -3.711640E-02  1.415438E+00
        26 -7.423281E-02 -5.567461E-02  1.415438E+00
        27 -5.567461E-02 -7.423281E-02  1.415438E+00
        28 -3.711640E-02 -7.423281E-02  1.415438E+00
        29 -1.855820E-02 -7.423281E-02  1.415438E+00
        30 -1.012415E-10 -5.567461E-02  1.415438E+00
        31 -1.023528E-10 -3.711640E-02  1.415438E+00
        32 -1.033472E-10 -1.855820E-02  1.415438E+00
        33 -7.423281E-02  1.614883E-11  8.846490E-02
        34 -7.423281E-02  1.644748E-11  1.769298E-01
        35 -7.423281E-02  1.951178E-11  2.653947E-01
        36 -7.423281E-02  1.864563E-11  3.538596E-01
        37 -7.423281E-02  2.118896E-11  4.423245E-01
        38 -7.423281E-02  2.200930E-11  5.307894E-01
        39 -7.423281E-02  2.390312E-11  6.192543E-01
        40 -7.423281E-02  2.488176E-11  7.077192E-01
        41 -7.423281E-02  2.671699E-11  7.961841E-01
        42 -7.423281E-02  2.787674E-11  8.846490E-01
        43 -7.423281E-02  2.951644E-11  9.731139E-01
        44 -7.423281E-02  3.070527E-11  1.061579E+00
        45 -7.423281E-02  3.240022E-11  1.150044E+00
        46 -7.423281E-02  3.356249E-11  1.238509E+00
        47 -7.423281E-02  3.523052E-11  1.326974E+00
        48 -9.847818E-11  3.731402E-11  1.326974E+00
        49 -9.337484E-11  3.563959E-11  1.238509E+00
        50 -8.833624E-11  3.344638E-11  1.150044E+00
        51 -8.317725E-11  3.176389E-11  1.061579E+00
        52 -7.829533E-11  2.963259E-11  9.731139E-01
        53 -7.284643E-11  2.785194E-11  8.846490E-01
        54 -6.812519E-11  2.566227E-11  7.961841E-01
        55 -6.235545E-11  2.394627E-11  7.077192E-01
        56 -5.810404E-11  2.173471E-11  6.192543E-01
        57 -5.183178E-11  2.016866E-11  5.307894E-01
        58 -4.779216E-11  1.732022E-11  4.423245E-01
        59 -4.005962E-11  1.580187E-11  3.538596E-01
        60 -3.951027E-11  1.375478E-11  2.653947E-01
        61 -3.032102E-11  1.378880E-11  1.769298E-01
        62 -2.819893E-11  5.741755E-12  8.846490E-02
        63 -7.423281E-02 -7.423281E-02  8.846490E-02
        64 -7.423281E-02 -7.423281E-02  1.769298E-01
        65 -7.423281E-02 -7.423281E-02  2.653947E-01
        66 -7.423281E-02 -7.423281E-02  3.538596E-01
        67 -7.423281E-02 -7.423281E-02  4.423245E-01
        68 -7.423281E-02 -7.423281E-02  5.307894E-01
        69 -7.423281E-02 -7.423281E-02  6.192543E-01
        70 -7.423281E-02 -7.423281E-02  7.077192E-01
        71 -7.423281E-02 -7.423281E-02  7.961841E-01
        72 -7.423281E-02 -7.423281E-02  8.846490E-01
        73 -7.423281E-02 -7.423281E-02  9.731139E-01
        74 -7.423281E-02 -7.423281E-02  1.061579E+00
        75 -7.423281E-02 -7.423281E-02  1.150044E+00
        76 -7.423281E-02 -7.423281E-02  1.238509E+00
        77 -7.423281E-02 -7.423281E-02  1.326974E+00
        78 -3.641180E-11 -7.423281E-02  8.846490E-02
        79 -3.785727E-11 -7.423281E-02  1.769298E-01
        80 -4.257681E-11 -7.423281E-02  2.653947E-01
        81 -4.605147E-11 -7.423281E-02  3.538596E-01
        82 -5.084067E-11 -7.423281E-02  4.423245E-01
        83 -5.494650E-11 -7.423281E-02  5.307894E-01
        84 -5.969736E-11 -7.423281E-02  6.192543E-01
        85 -6.413491E-11 -7.423281E-02  7.077192E-01
        86 -6.889525E-11 -7.423281E-02  7.961841E-01
        87 -7.338199E-11 -7.423281E-02  8.846490E-01
        88 -7.799288E-11 -7.423281E-02  9.731139E-01
        89 -8.245513E-11 -7.423281E-02  1.061579E+00
        90 -8.714210E-11 -7.423281E-02  1.150044E+00
        91 -9.158817E-11 -7.423281E-02  1.238509E+00
        92 -9.622451E-11 -7.423281E-02  1.326974E+00
        93 -3.711640E-02 -1.855820E-02  0.000000E+00
        94 -1.855820E-02 -3.711640E-02  0.000000E+00
        95 -3.711640E-02 -3.711640E-02  0.000000E+00
        96 -5.567461E-02 -3.711640E-02  0.000000E+00
        97 -3.711640E-02 -5.567461E-02  0.000000E+00
        98 -3.711640E-02 -1.855820E-02  1.415438E+00
        99 -1.855820E-02 -3.711640E-02  1.415438E+00
       100 -3.711640E-02 -3.711640E-02  1.415438E+00
       101 -5.567461E-02 -3.711640E-02  1.415438E+00
       102 -3.711640E-02 -5.567461E-02  1.415438E+00
       103 -3.711640E-02  1.206414E-11  8.846490E-02
       104 -1.855820E-02  1.344257E-11  1.769298E-01
       105 -3.711640E-02  1.531560E-11  1.769298E-01
       106 -5.567461E-02  1.478505E-11  1.769298E-01
       107 -3.711640E-02  1.594544E-11  2.653947E-01
       108 -1.855820E-02  1.709862E-11  3.538596E-01
       109 -3.711640E-02  1.780166E-11  3.538596E-01
       110 -5.567461E-02  1.849916E-11  3.538596E-01
       111 -3.711640E-02  1.932756E-11  4.423245E-01
       112 -1.855820E-02  2.059981E-11  5.307894E-01
       113 -3.711640E-02  2.115084E-11  5.307894E-01
       114 -5.567461E-02  2.151509E-11  5.307894E-01
       115 -3.711640E-02  2.274733E-11  6.192543E-01
       116 -1.855820E-02  2.423771E-11  7.077192E-01
       117 -3.711640E-02  2.450695E-11  7.077192E-01
       118 -5.567461E-02  2.471518E-11  7.077192E-01
       119 -3.711640E-02  2.615882E-11  7.961841E-01
       120 -1.855820E-02  2.786365E-11  8.846490E-01
       121 -3.711640E-02  2.790336E-11  8.846490E-01
       122 -5.567461E-02  2.788402E-11  8.846490E-01
       123 -3.711640E-02  2.954924E-11  9.731139E-01
       124 -1.855820E-02  3.151462E-11  1.061579E+00
       125 -3.711640E-02  3.127086E-11  1.061579E+00
       126 -5.567461E-02  3.099444E-11  1.061579E+00
       127 -3.711640E-02  3.291223E-11  1.150044E+00
       128 -1.855820E-02  3.514341E-11  1.238509E+00
       129 -3.711640E-02  3.463265E-11  1.238509E+00
       130 -5.567461E-02  3.409874E-11  1.238509E+00
       131 -3.711640E-02  3.627380E-11  1.326974E+00
       132 -7.423281E-02 -3.711640E-02  8.846490E-02
       133 -7.423281E-02 -1.855820E-02  1.769298E-01
       134 -7.423281E-02 -3.711640E-02  1.769298E-01
       135 -7.423281E-02 -5.567461E-02  1.769298E-01
       136 -7.423281E-02 -3.711640E-02  2.653947E-01
       137 -7.423281E-02 -1.855820E-02  3.538596E-01
       138 -7.423281E-02 -3.711640E-02  3.538596E-01
       139 -7.423281E-02 -5.567461E-02  3.538596E-01
       140 -7.423281E-02 -3.711640E-02  4.423245E-01
       141 -7.423281E-02 -1.855820E-02  5.307894E-01
       142 -7.423281E-02 -3.711640E-02  5.307894E-01
       143 -7.423281E-02 -5.567461E-02  5.307894E-01
       144 -7.423281E-02 -3.711640E-02  6.192543E-01
       145 -7.423281E-02 -1.855820E-02  7.077192E-01
       146 -7.423281E-02 -3.711640E-02  7.077192E-01
       147 -7.423281E-02 -5.567461E-02  7.077192E-01
       148 -7.423281E-02 -3.711640E-02  7.961841E-01
       149 -7.423281E-02 -1.855820E-02  8.846490E-01
       150 -7.423281E-02 -3.711640E-02  8.846490E-01
       151 -7.423281E-02 -5.567461E-02  8.846490E-01
       152 -7.423281E-02 -3.711640E-02  9.731139E-01
       153 -7.423281E-02 -1.855820E-02  1.061579E+00
       154 -7.423281E-02 -3.711640E-02  1.061579E+00
       155 -7.423281E-02 -5.567461E-02  1.061579E+00
       156 -7.423281E-02 -3.711640E-02  1.150044E+00
       157 -7.423281E-02 -1.855820E-02  1.238509E+00
       158 -7.423281E-02 -3.711640E-02  1.238509E+00
       159 -7.423281E-02 -5.567461E-02  1.238509E+00
       160 -7.423281E-02 -3.711640E-02  1.326974E+00
       161 -3.711640E-02 -7.423281E-02  8.846490E-02
       162 -5.567461E-02 -7.423281E-02  1.769298E-01
       163 -3.711640E-02 -7.423281E-02  1.769298E-01
       164 -1.855820E-02 -7.423281E-02  1.769298E-01
       165 -3.711640E-02 -7.423281E-02  2.653947E-01
       166 -5.567461E-02 -7.423281E-02  3.538596E-01
       167 -3.711640E-02 -7.423281E-02  3.538596E-01
       168 -1.855820E-02 -7.423281E-02  3.538596E-01
       169 -3.711640E-02 -7.423281E-02  4.423245E-01
       170 -5.567461E-02 -7.423281E-02  5.307894E-01
       171 -3.711640E-02 -7.423281E-02  5.307894E-01
       172 -1.855820E-02 -7.423281E-02  5.307894E-01
       173 -3.711640E-02 -7.423281E-02  6.192543E-01
       174 -5.567461E-02 -7.423281E-02  7.077192E-01
       175 -3.711640E-02 -7.423281E-02  7.077192E-01
       176 -1.855820E-02 -7.423281E-02  7.077192E-01
       177 -3.711640E-02 -7.423281E-02  7.961841E-01
       178 -5.567461E-02 -7.423281E-02  8.846490E-01
       179 -3.711640E-02 -7.423281E-02  8.846490E-01
       180 -1.855820E-02 -7.423281E-02  8.846490E-01
       181 -3.711640E-02 -7.423281E-02  9.731139E-01
       182 -5.567461E-02 -7.423281E-02  1.061579E+00
       183 -3.711640E-02 -7.423281E-02  1.061579E+00
       184 -1.855820E-02 -7.423281E-02  1.061579E+00
       185 -3.711640E-02 -7.423281E-02  1.150044E+00
       186 -5.567461E-02 -7.423281E-02  1.238509E+00
       187 -3.711640E-02 -7.423281E-02  1.238509E+00
       188 -1.855820E-02 -7.423281E-02  1.238509E+00
       189 -3.711640E-02 -7.423281E-02  1.326974E+00
       190 -3.074423E-11 -3.711640E-02  8.846490E-02
       191 -3.773711E-11 -5.567461E-02  1.769298E-01
       192 -3.787884E-11 -3.711640E-02  1.769298E-01
       193 -3.223648E-11 -1.855820E-02  1.769298E-01
       194 -3.964782E-11 -3.711640E-02  2.653947E-01
       195 -4.561965E-11 -5.567461E-02  3.538596E-01
       196 -4.503395E-11 -3.711640E-02  3.538596E-01
       197 -4.303960E-11 -1.855820E-02  3.538596E-01
       198 -4.889997E-11 -3.711640E-02  4.423245E-01
       199 -5.457818E-11 -5.567461E-02  5.307894E-01
       200 -5.421049E-11 -3.711640E-02  5.307894E-01
       201 -5.291281E-11 -1.855820E-02  5.307894E-01
       202 -5.860990E-11 -3.711640E-02  6.192543E-01
       203 -6.392619E-11 -5.567461E-02  7.077192E-01
       204 -6.370364E-11 -3.711640E-02  7.077192E-01
       205 -6.305354E-11 -1.855820E-02  7.077192E-01
       206 -6.834312E-11 -3.711640E-02  7.961841E-01
       207 -7.335210E-11 -5.567461E-02  8.846490E-01
       208 -7.335106E-11 -3.711640E-02  8.846490E-01
       209 -7.308070E-11 -1.855820E-02  8.846490E-01
       210 -7.804086E-11 -3.711640E-02  9.731139E-01
       211 -8.272482E-11 -5.567461E-02  1.061579E+00
       212 -8.297708E-11 -3.711640E-02  1.061579E+00
       213 -8.307394E-11 -1.855820E-02  1.061579E+00
       214 -8.768350E-11 -3.711640E-02  1.150044E+00
       215 -9.210301E-11 -5.567461E-02  1.238509E+00
       216 -9.260739E-11 -3.711640E-02  1.238509E+00
       217 -9.300316E-11 -1.855820E-02  1.238509E+00
       218 -9.732531E-11 -3.711640E-02  1.326974E+00
       219 -3.711640E-02 -3.711640E-02  8.846490E-02
       220 -3.711640E-02 -1.855820E-02  1.769298E-01
       221 -1.855820E-02 -3.711640E-02  1.769298E-01
       222 -3.711640E-02 -3.711640E-02  1.769298E-01
       223 -5.567461E-02 -3.711640E-02  1.769298E-01
       224 -3.711640E-02 -5.567461E-02  1.769298E-01
       225 -3.711640E-02 -3.711640E-02  2.653947E-01
       226 -3.711640E-02 -1.855820E-02  3.538596E-01
       227 -1.855820E-02 -3.711640E-02  3.538596E-01
       228 -3.711640E-02 -3.711640E-02  3.538596E-01
       229 -5.567461E-02 -3.711640E-02  3.538596E-01
       230 -3.711640E-02 -5.567461E-02  3.538596E-01
       231 -3.711640E-02 -3.711640E-02  4.423245E-01
       232 -3.711640E-02 -1.855820E-02  5.307894E-01
       233 -1.855820E-02 -3.711640E-02  5.307894E-01
       234 -3.711640E-02 -3.711640E-02  5.307894E-01
       235 -5.567461E-02 -3.711640E-02  5.307894E-01
       236 -3.711640E-02 -5.567461E-02  5.307894E-01
       237 -3.711640E-02 -3.711640E-02  6.192543E-01
       238 -3.711640E-02 -1.855820E-02  7.077192E-01
       239 -1.855820E-02 -3.711640E-02  7.077192E-01
       240 -3.711640E-02 -3.711640E-02  7.077192E-01
       241 -5.567461E-02 -3.711640E-02  7.077192E-01
       242 -3.711640E-02 -5.567461E-02  7.077192E-01
       243 -3.711640E-02 -3.711640E-02  7.961841E-01
       244 -3.711640E-02 -1.855820E-02  8.846490E-01
       245 -1.855820E-02 -3.711640E-02  8.846490E-01
       246 -3.711640E-02 -3.711640E-02  8.846490E-01
       247 -5.567461E-02 -3.711640E-02  8.846490E-01
       248 -3.711640E-02 -5.567461E-02  8.846490E-01
       249 -3.711640E-02 -3.711640E-02  9.731139E-01
       250 -3.711640E-02 -1.855820E-02  1.061579E+00
       251 -1.855820E-02 -3.711640E-02  1.061579E+00
       252 -3.711640E-02 -3.711640E-02  1.061579E+00
       253 -5.567461E-02 -3.711640E-02  1.061579E+00
       254 -3.711640E-02 -5.567461E-02  1.061579E+00
       255 -3.711640E-02 -3.711640E-02  1.150044E+00
       256 -3.711640E-02 -1.855820E-02  1.238509E+00
       257 -1.855820E-02 -3.711640E-02  1.238509E+00
       258 -3.711640E-02 -3.711640E-02  1.238509E+00
       259 -5.567461E-02 -3.711640E-02  1.238509E+00
       260 -3.711640E-02 -5.567461E-02  1.238509E+00
       261 -3.711640E-02 -3.711640E-02  1.326974E+00

 forces (fx,fy,fz) for set NALL and time  0.1000000E+01

         1 -1.154490E-05 -1.154492E-05  3.578113E-02
         2  1.154492E-05 -1.154493E-05  3.578113E-02
         3  1.154492E-05  1.154492E-05  3.578113E-02
         4 -1.154492E-05  1.154492E-05  3.578113E-02
         5 -1.154492E-05 -1.154492E-05 -3.578113E-02
         6  1.154492E-05 -1.154492E-05 -3.578113E-02
         7  1.154492E-05  1.154492E-05 -3.578113E-02
         8 -1.154492E-05  1.154492E-05 -3.578113E-02
         9  5.610067E-14  4.617967E-05 -1.431245E-01
        10 -1.255750E-13 -2.308984E-05  7.156226E-02
        11  6.244171E-14  4.617967E-05 -1.431245E-01
        12 -4.617967E-05 -6.855195E-14 -1.431245E-01
        13  2.308984E-05  6.967012E-14  7.156226E-02
        14 -4.617967E-05 -4.291756E-14 -1.431245E-01
        15  1.014752E-13 -4.617967E-05 -1.431245E-01
        16 -1.511433E-13  2.308984E-05  7.156226E-02
        17  1.166744E-13 -4.617967E-05 -1.431245E-01
        18  4.617967E-05 -1.004202E-14 -1.431245E-01
        19 -2.308984E-05  2.840340E-14  7.156226E-02
        20  4.617967E-05  7.522725E-15 -1.431245E-01
        21 -1.434620E-12  4.617968E-05  1.431245E-01
        22  9.663244E-13 -2.308984E-05 -7.156226E-02
        23 -1.196626E-12  4.617967E-05  1.431245E-01
        24 -4.617968E-05  5.898948E-14  1.431245E-01
        25  2.308984E-05 -9.252775E-14 -7.156226E-02
        26 -4.617968E-05  4.858983E-13  1.431245E-01
        27 -1.163046E-12 -4.617967E-05  1.431245E-01
        28  5.742466E-13  2.308984E-05 -7.156226E-02
        29 -9.290547E-13 -4.617967E-05  1.431245E-01
        30  4.617967E-05  3.381721E-13  1.431245E-01
        31 -2.308984E-05 -5.064125E-13 -7.156226E-02
        32  4.617967E-05  7.704699E-13  1.431245E-01
        33 -4.617967E-05  4.617967E-05 -4.103402E-14
        34  2.308984E-05 -2.308984E-05  4.508503E-14
        35 -4.617967E-05  4.617967E-05 -7.130277E-14
        36  2.308984E-05 -2.308984E-05  4.272364E-14
        37 -4.617967E-05  4.617967E-05 -3.765304E-14
        38  2.308984E-05 -2.308984E-05 -8.669281E-15
        39 -4.617967E-05  4.617967E-05  2.574720E-14
        40  2.308984E-05 -2.308984E-05 -2.992832E-14
        41 -4.617967E-05  4.617967E-05  6.760217E-15
        42  2.308984E-05 -2.308984E-05  1.515888E-14
        43 -4.617967E-05  4.617967E-05 -6.150549E-14
        44  2.308984E-05 -2.308984E-05  4.872925E-14
        45 -4.617967E-05  4.617967E-05 -5.760887E-14
        46  2.308984E-05 -2.308984E-05  1.391422E-14
        47 -4.617967E-05  4.617967E-05  9.448171E-15
        48  4.617967E-05  4.617967E-05 -5.754403E-15
        49 -2.308984E-05 -2.308984E-05 -2.643935E-15
        50  4.617967E-05  4.617967E-05  2.062207E-14
        51 -2.308984E-05 -2.308984E-05 -1.761395E-14
        52  4.617967E-05  4.617967E-05  1.968239E-14
        53 -2.308984E-05 -2.308984E-05 -4.104789E-15
        54  4.617967E-05  4.617967E-05 -4.931602E-15
        55 -2.308984E-05 -2.308984E-05  1.447540E-14
        56  4.617967E-05  4.617967E-05 -1.258867E-14
        57 -2.308984E-05 -2.308984E-05  8.555656E-15
        58  4.617967E-05  4.617967E-05  7.021727E-15
        59 -2.308984E-05 -2.308984E-05 -5.850572E-15
        60  4.617967E-05  4.617967E-05  1.542115E-14
        61 -2.308984E-05 -2.308984E-05 -1.340291E-15
        62  4.617967E-05  4.617967E-05 -4.356758E-15
        63 -4.617967E-05 -4.617967E-05 -1.134509E-14
        64  2.308984E-05  2.308984E-05  1.968391E-14
        65 -4.617967E-05 -4.617967E-05 -3.137768E-14
        66  2.308984E-05  2.308984E-05  2.108036E-14
        67 -4.617967E-05 -4.617967E-05 -2.125210E-14
        68  2.308984E-05  2.308984E-05  2.066923E-15
        69 -4.617967E-05 -4.617967E-05  6.354292E-15
        70  2.308984E-05  2.308984E-05 -8.276366E-15
        71 -4.617967E-05 -4.617967E-05  2.567391E-16
        72  2.308984E-05  2.308984E-05  4.083539E-15
        73 -4.617967E-05 -4.617967E-05 -1.774622E-14
        74  2.308984E-05  2.308984E-05  1.611645E-14
        75 -4.617967E-05 -4.617967E-05 -2.193211E-14
        76  2.308984E-05  2.308984E-05  7.098488E-15
        77 -4.617967E-05 -4.617967E-05  3.341077E-15
        78  4.617967E-05 -4.617967E-05  3.745919E-14
        79 -2.308984E-05  2.308984E-05 -4.733063E-14
        80  4.617967E-05 -4.617967E-05  7.789299E-14
        81 -2.308984E-05  2.308984E-05 -4.971197E-14
        82  4.617967E-05 -4.617967E-05  4.552782E-14
        83 -2.308984E-05  2.308984E-05 -9.788177E-16
        84  4.617967E-05 -4.617967E-05 -1.563983E-14
        85 -2.308984E-05  2.308984E-05  2.071737E-14
        86  4.617967E-05 -4.617967E-05  5.724587E-16
        87 -2.308984E-05  2.308984E-05 -1.778916E-14
        88  4.617967E-05 -4.617967E-05  6.007217E-14
        89 -2.308984E-05  2.308984E-05 -5.284315E-14
        90  4.617967E-05 -4.617967E-05  6.175182E-14
        91 -2.308984E-05  2.308984E-05 -1.398144E-14
        92  4.617967E-05 -4.617967E-05 -1.380580E-14
        93  1.859608E-13 -9.568447E-14 -2.862490E-01
        94  2.149982E-13 -8.974473E-14 -2.862490E-01
        95 -2.933824E-13  1.063078E-13  1.431245E-01
        96  1.990945E-13 -8.114252E-14 -2.862490E-01
        97  1.946210E-13 -7.384075E-14 -2.862490E-01
        98 -2.176675E-12  9.303019E-13  2.862490E-01
        99 -2.566611E-12  7.363878E-13  2.862490E-01
       100  1.379060E-12 -5.172403E-13 -1.431245E-01
       101 -2.555011E-12  7.296577E-13  2.862490E-01
       102 -2.184677E-12  9.317746E-13  2.862490E-01
       103  1.182126E-13  9.235935E-05 -8.092626E-14
       104  3.767448E-14  9.235935E-05  4.508113E-15
       105 -1.434644E-13 -4.617967E-05  7.134484E-14
       106  4.373339E-14  9.235935E-05 -6.519676E-14
       107 -4.647009E-14  9.235935E-05 -7.338390E-14
       108 -7.493092E-14  9.235935E-05 -3.069311E-14
       109  1.009342E-13 -4.617967E-05  4.562540E-14
       110 -7.761859E-14  9.235935E-05 -6.414986E-14
       111 -9.457260E-14  9.235935E-05 -3.501116E-14
       112 -1.206491E-13  9.235935E-05 -8.342285E-15
       113  1.497576E-13 -4.617967E-05  3.210106E-15
       114 -1.224418E-13  9.235935E-05 -4.200633E-15
       115 -1.056622E-13  9.235935E-05  1.131278E-14
       116  9.589766E-15  9.235935E-05 -2.849609E-14
       117 -1.801737E-14 -4.617967E-05 -1.200147E-14
       118  2.081825E-15  9.235935E-05  4.979329E-14
       119  1.009700E-13  9.235935E-05 -1.836747E-15
       120  8.794828E-14  9.235935E-05 -7.972572E-15
       121 -1.197663E-13 -4.617967E-05  1.286731E-14
       122  9.624184E-14  9.235935E-05 -3.615988E-14
       123  1.875514E-14  9.235935E-05 -4.086391E-14
       124 -1.614439E-15  9.235935E-05 -2.494077E-14
       125  3.825476E-15 -4.617967E-05  3.351768E-14
       126 -1.458988E-14  9.235935E-05 -6.231279E-14
       127 -3.769499E-14  9.235935E-05 -4.372956E-14
       128 -7.539590E-14  9.235935E-05 -1.575736E-14
       129  1.343314E-13 -4.617967E-05  1.166363E-14
       130 -5.073628E-14  9.235935E-05 -1.677109E-14
       131 -4.066111E-14  9.235935E-05  8.032420E-15
       132 -9.235935E-05 -1.252111E-13 -2.913945E-14
       133 -9.235935E-05 -1.200807E-13 -1.036298E-13
       134  4.617967E-05  9.039974E-14  5.021764E-14
       135 -9.235935E-05 -1.029344E-13 -8.869728E-14
       136 -9.235935E-05 -8.464094E-14 -9.666616E-14
       137 -9.235935E-05 -9.158734E-15 -1.180566E-13
       138  4.617967E-05  2.623737E-15  6.165901E-14
       139 -9.235935E-05 -1.176182E-14 -7.219659E-14
       140 -9.235935E-05  4.513567E-14 -5.978334E-14
       141 -9.235935E-05  1.749753E-14  1.957635E-15
       142  4.617967E-05 -4.757280E-14 -2.711373E-15
       143 -9.235935E-05 -2.180307E-15 -2.492104E-14
       144 -9.235935E-05 -3.323182E-14  2.708857E-14
       145 -9.235935E-05 -3.446377E-14  2.476404E-14
       146  4.617967E-05  2.595733E-14 -3.256336E-14
       147 -9.235935E-05 -2.440119E-14  2.431388E-14
       148 -9.235935E-05  4.367967E-16  5.717649E-15
       149 -9.235935E-05 -5.090772E-14 -3.396675E-14
       150  4.617967E-05  6.902713E-14  2.366813E-14
       151 -9.235935E-05 -4.214798E-14 -4.915339E-14
       152 -9.235935E-05 -5.275307E-14 -8.466014E-14
       153 -9.235935E-05  1.511513E-15 -1.076370E-13
       154  4.617967E-05 -1.328660E-14  6.517139E-14
       155 -9.235935E-05 -2.288228E-15 -6.711819E-14
       156 -9.235935E-05  6.153937E-14 -7.483207E-14
       157 -9.235935E-05  9.124436E-14 -2.788915E-14
       158  4.617967E-05 -6.376874E-14  2.223005E-14
       159 -9.235935E-05  5.058517E-14 -3.495208E-14
       160 -9.235935E-05  3.970300E-14  5.925815E-15
       161  2.144652E-13 -9.235935E-05  1.642957E-14
       162  1.661611E-13 -9.235935E-05  2.741730E-15
       163 -1.763063E-13  4.617967E-05 -2.187183E-14
       164  1.653781E-13 -9.235935E-05  5.917315E-14
       165  8.646455E-14 -9.235935E-05  4.534654E-14
       166 -1.767049E-14 -9.235935E-05  8.795048E-15
       167  4.757544E-14  4.617967E-05 -3.120117E-14
       168 -2.313016E-14 -9.235935E-05  8.005055E-14
       169 -9.871043E-14 -9.235935E-05  2.914162E-14
       170 -6.477095E-14 -9.235935E-05  2.603213E-14
       171  1.266355E-13  4.617967E-05  1.004405E-15
       172 -6.239679E-14 -9.235935E-05 -1.239113E-14
       173  9.182493E-15 -9.235935E-05 -1.252557E-14
       174  3.259892E-14 -9.235935E-05  1.385177E-15
       175 -3.157065E-14  4.617967E-05  1.518230E-14
       176  2.875496E-14 -9.235935E-05 -2.585519E-14
       177  3.782762E-14 -9.235935E-05 -2.653260E-15
       178  6.850000E-14 -9.235935E-05  2.555855E-14
       179 -1.169684E-13  4.617967E-05 -8.705276E-15
       180  7.232704E-14 -9.235935E-05  1.956768E-14
       181  7.368841E-14 -9.235935E-05  3.752164E-14
       182 -7.860116E-16 -9.235935E-05  1.028778E-14
       183  2.945564E-14  4.617967E-05 -3.527257E-14
       184 -1.415139E-14 -9.235935E-05  7.710065E-14
       185 -9.572557E-14 -9.235935E-05  4.680197E-14
       186 -1.339095E-13 -9.235935E-05  1.438606E-14
       187  1.331162E-13  4.617967E-05 -1.029602E-14
       188 -1.098195E-13 -9.235935E-05  2.071433E-14
       189 -1.002093E-13 -9.235935E-05 -8.111133E-15
       190  9.235935E-05  1.031099E-14  5.891696E-14
       191  9.235935E-05  1.526799E-14  1.001924E-13
       192 -4.617967E-05  4.208768E-14 -7.551663E-14
       193  9.235935E-05  4.086660E-14  8.667199E-14
       194  9.235935E-05  4.414591E-14  1.152578E-13
       195  9.235935E-05  4.447834E-14  9.970779E-14
       196 -4.617967E-05 -4.379944E-14 -6.741504E-14
       197  9.235935E-05  3.982077E-14  9.225910E-14
       198  9.235935E-05  3.320104E-14  5.754338E-14
       199  9.235935E-05  7.195213E-14  1.600087E-14
       200 -4.617967E-05 -6.365343E-14  4.186538E-15
       201  9.235935E-05  5.728455E-14  6.427150E-15
       202  9.235935E-05  7.533023E-14 -2.668406E-14
       203  9.235935E-05 -3.300897E-15 -4.779575E-14
       204 -4.617967E-05  1.759366E-14  3.215548E-14
       205  9.235935E-05 -8.747117E-15 -4.077901E-15
       206  9.235935E-05 -5.836396E-14 -3.017226E-15
       207  9.235935E-05 -5.045420E-14  5.338937E-14
       208 -4.617967E-05  5.775554E-14 -2.209712E-14
       209  9.235935E-05 -4.323699E-14  3.262603E-14
       210  9.235935E-05  7.274339E-15  8.020711E-14
       211  9.235935E-05  5.025064E-15  9.303018E-14
       212 -4.617967E-05  1.306076E-15 -6.605740E-14
       213  9.235935E-05  1.768527E-14  8.440037E-14
       214  9.235935E-05  3.806776E-16  7.887701E-14
       215  9.235935E-05  2.265179E-14  3.403896E-14
       216 -4.617967E-05 -6.657015E-14 -2.104220E-14
       217  9.235935E-05  2.134834E-15  2.822482E-14
       218  9.235935E-05  1.764350E-14 -9.077916E-15
       219  3.773546E-13 -1.223804E-13 -1.138412E-14
       220  2.389331E-13 -8.322254E-14 -1.267107E-14
       221  2.362201E-13 -8.652239E-14  5.944399E-14
       222 -3.416922E-13  1.442350E-13  4.883030E-15
       223  2.623450E-13 -9.698939E-14 -7.020404E-14
       224  2.285166E-13 -1.129703E-13  1.488805E-14
       225  5.284464E-14 -6.233544E-14  2.094570E-15
       226 -1.114704E-13  3.724048E-14 -3.520600E-14
       227 -1.231132E-13  3.244805E-14  6.105056E-14
       228  1.593729E-13 -3.656438E-14  5.791808E-16
       229 -1.306252E-13  3.594192E-14 -5.797012E-14
       230 -1.080834E-13  3.268452E-14  3.017725E-14
       231 -2.459163E-13  1.035488E-13 -4.706522E-16
       232 -2.107348E-13  1.088257E-13  1.106211E-14
       233 -2.359406E-13  8.982524E-14 -2.797046E-14
       234  2.990223E-13 -1.323230E-13 -1.147736E-15
       235 -2.354969E-13  9.147351E-14  2.583177E-14
       236 -2.087221E-13  1.082361E-13 -1.057683E-14
       237 -1.156358E-13  4.841285E-14  4.155313E-15
       238  3.893253E-14 -4.909928E-14  2.565721E-14
       239  5.189795E-14 -1.949062E-14 -6.085063E-14
       240 -5.515428E-14  4.685891E-14 -1.974983E-15
       241  4.466509E-14 -1.917080E-14  5.484523E-14
       242  3.920984E-14 -3.745288E-14 -2.659201E-14
       243  1.757001E-13 -8.546096E-14  6.118153E-16
       244  1.850557E-13 -1.158481E-13 -5.788122E-15
       245  2.099907E-13 -8.142745E-14  1.029320E-14
       246 -2.603343E-13  1.358472E-13  9.428222E-16
       247  2.175926E-13 -8.976005E-14 -8.722840E-15
       248  1.762317E-13 -1.109274E-13  6.322200E-15
       249  1.264534E-13 -5.970949E-14 -3.253691E-15
       250 -2.406932E-14  3.395949E-14 -2.444290E-14
       251 -2.209113E-14  3.095547E-15  6.475397E-14
       252  3.393156E-14 -3.293538E-14 -1.801944E-16
       253 -2.968889E-14  6.322535E-15 -5.559507E-14
       254 -2.018441E-14  9.311717E-15  3.079915E-14
       255 -1.719078E-13  7.229389E-14  5.847536E-15
       256 -1.975851E-13  1.415062E-13 -1.282286E-14
       257 -2.388348E-13  1.141060E-13 -1.301476E-15
       258  3.039565E-13 -1.507559E-13 -3.159799E-15
       259 -2.378107E-13  9.450208E-14 -6.734847E-15
       260 -2.163549E-13  1.215197E-13  4.703703E-15
       261 -1.838444E-13  1.093885E-13  3.973601E-16

 stresses (elem, integ.pnt.,sxx,syy,szz,sxy,sxz,syz) for set EALL and time  0.1000000E+01

         1   1 -2.543022E-04 -2.543020E-04  2.003972E+00 -5.820904E-11 -1.336905E-10  1.442071E-12
         1   2 -2.543021E-04 -2.543021E-04  2.003972E+00 -4.058022E-11 -4.130798E-11 -2.066121E-11
         1   3 -2.543020E-04 -2.543020E-04  2.003972E+00  1.663115E-11 -4.334565E-12 -3.348588E-12
         1   4 -2.543019E-04 -2.543020E-04  2.003972E+00 -8.321452E-12 -9.771742E-12 -1.078417E-11
         1   5 -2.543019E-04 -2.543020E-04  2.003972E+00  1.300841E-11  2.469404E-11  2.256775E-11
         1   6 -2.543019E-04 -2.543019E-04  2.003972E+00  2.674292E-12 -2.093480E-11  6.901296E-12
         1   7 -2.543020E-04 -2.543020E-04  2.003972E+00  1.425169E-11 -8.236239E-12  1.194319E-11
         1   8 -2.543020E-04 -2.543020E-04  2.003972E+00  3.622141E-12 -1.697386E-11  1.587764E-12
         2   1 -2.543020E-04 -2.543020E-04  2.003972E+00  1.495342E-11 -1.540579E-11  1.008740E-13
         2   2 -2.543020E-04 -2.543019E-04  2.003972E+00 -2.806389E-11  5.595707E-12  7.635518E-11
         2   3 -2.543020E-04 -2.543021E-04  2.003972E+00 -3.648259E-11 -1.964234E-11 -3.893479E-12
         2   4 -2.543020E-04 -2.543019E-04  2.003972E+00 -2.701622E-11 -1.434675E-11  2.043756E-11
         2   5 -2.543020E-04 -2.543020E-04  2.003972E+00  8.027472E-12 -3.949513E-11 -3.647942E-12
         2   6 -2.543020E-04 -2.543020E-04  2.003972E+00  4.862501E-12 -2.293282E-11 -1.986229E-11
         2   7 -2.543020E-04 -2.543020E-04  2.003972E+00 -2.185046E-13 -2.687083E-11 -1.787080E-13
         2   8 -2.543020E-04 -2.543020E-04  2.003972E+00 -2.973410E-12 -2.447791E-11  2.929236E-12
         3   1 -2.543020E-04 -2.543020E-04  2.003972E+00 -1.057416E-11  1.504108E-11  8.206606E-12
         3   2 -2.543020E-04 -2.543020E-04  2.003972E+00  9.614135E-12 -2.868709E-12  3.926847E-12
         3   3 -2.543020E-04 -2.543020E-04  2.003972E+00  7.760750E-12 -8.230904E-12  4.690013E-12
         3   4 -2.543020E-04 -2.543020E-04  2.003972E+00 -9.411122E-12 -5.267629E-12  3.077441E-12
         3   5 -2.543020E-04 -2.543020E-04  2.003972E+00 -2.446386E-12 -3.172026E-11  1.263940E-11