    1C
    1UBalken                                                            
    1UUSER                                                              
    1UDATE              15.december.2018                                
    1UTIME              15:49:14                                        
    1UHOST                                                              
    1UPGM               CalculiX                                        
    1UVERSION           Version 2.15                             
    1UCOMPILETIME       Sa 15. Dez 14:32:01 CET 2018                    
    1UDIR                                                               
    1UDBN                                                               
    1UMAT    1STEEL                                                     
    2C                            11                                     1
 -1         1 0.00000E+00 0.00000E+00 0.00000E+00
 -1         2 0.00000E+00 0.00000E+00 1.00000E+02
 -1         3 0.00000E+00 0.00000E+00 2.00000E+02
 -1         4 0.00000E+00 0.00000E+00 3.00000E+02
 -1         5 0.00000E+00 0.00000E+00 4.00000E+02
 -1         6 0.00000E+00 0.00000E+00 5.00000E+02
 -1         7 0.00000E+00 0.00000E+00 6.00000E+02
 -1         8 0.00000E+00 0.00000E+00 7.00000E+02
 -1         9 0.00000E+00 0.00000E+00 8.00000E+02
 -1        10 0.00000E+00 0.00000E+00 9.00000E+02
 -1        11 0.00000E+00 0.00000E+00 1.00000E+03
 -3
    3C                             5                                     1
 -1         1   12    0    1
 -2         1         3         2
 -1         2   12    0    1
 -2         3         5         4
 -1         3   12    0    1
 -2         5         7         6
 -1         4   12    0    1
 -2         7         9         8
 -1         5   12    0    1
 -2         9        11        10
 -3
    1PSTEP                         1           1           1          
  100CL  101 1.000000000          11                     0    1           1
 -4  STRESS      6    1
 -5  SXX         1    4    1    1
 -5  SYY         1    4    2    2
 -5  SZZ         1    4    3    3
 -5  SXY         1    4    1    2
 -5  SYZ         1    4    2    3
 -5  SZX         1    4    3    1
 -1         1-7.94901E-09-1.00067E+02-4.68390E-10 6.78998E-07 1.00004E+05-6.21076E-06
 -1         2-7.88919E-09-9.98180E+01-4.52943E-10 6.75928E-07 9.00079E+04-5.41127E-06
 -1         3-7.82936E-09-9.95689E+01-4.37495E-10 6.72858E-07 8.00118E+04-4.61178E-06
 -1         4-7.39875E-09-9.85577E+01-4.35321E-10 6.46986E-07 7.00083E+04-3.83783E-06
 -1         5-6.96814E-09-9.75466E+01-4.33147E-10 6.21114E-07 6.00048E+04-3.06388E-06
 -1         6-6.69470E-09-9.80515E+01-5.40133E-10 5.76041E-07 5.00004E+04-2.38868E-06
 -1         7-6.42125E-09-9.85564E+01-6.47120E-10 5.30968E-07 3.99960E+04-1.71348E-06
 -1         8-5.53570E-09-9.85784E+01-2.13802E-10 4.38168E-07 2.99995E+04-1.06305E-06
 -1         9-4.65014E-09-9.86004E+01 2.19515E-10 3.45368E-07 2.00030E+04-4.12611E-07
 -1        10-3.10273E-09-9.86037E+01-5.74040E-10 2.57527E-07 1.00034E+04-2.00314E-07
 -1        11-1.55532E-09-9.86069E+01-1.36760E-09 1.69686E-07 3.80125E+00 1.19839E-08
 -3
 9999
