
 displacements (vx,vy,vz) for set NALL and time  0.1000000E+01

         1  2.767891E-01  1.598330E+05  0.000000E+00
         2  2.767891E-01  0.000000E+00  0.000000E+00
         3  2.767891E-01  4.000000E+05  0.000000E+00
         4  2.767891E-01  0.000000E+00  0.000000E+00
         5  2.767891E-01  3.301917E+05  0.000000E+00
         6  2.767891E-01  0.000000E+00  0.000000E+00
         7  2.767891E-01  3.299463E+05  0.000000E+00
         8  2.767891E-01  0.000000E+00  0.000000E+00
         9  2.767891E-01  2.292013E+05  0.000000E+00
        10  2.767891E-01  0.000000E+00  0.000000E+00
        11  2.767891E-01  2.289560E+05  0.000000E+00
        12  2.767891E-01  0.000000E+00  0.000000E+00
        13  2.767891E-01  2.219752E+05  0.000000E+00
        14  2.767891E-01  0.000000E+00  0.000000E+00
        15  2.767891E-01  2.219773E+05  0.000000E+00
        16  2.767891E-01  0.000000E+00  0.000000E+00
        17  2.767891E-01  2.219773E+05  0.000000E+00
        18  2.767891E-01  0.000000E+00  0.000000E+00
        19  2.767891E-01  2.201379E+05  0.000000E+00
        20  2.767891E-01  0.000000E+00  0.000000E+00
        21  2.767891E-01  2.131570E+05  0.000000E+00
        22  2.767891E-01  0.000000E+00  0.000000E+00
        23  2.767891E-01  2.129117E+05  0.000000E+00
        24  2.767891E-01  0.000000E+00  0.000000E+00
        25  2.767891E-01  2.298867E+05  0.000000E+00
        26  2.767891E-01  0.000000E+00  0.000000E+00
        27  2.767891E-01  2.296414E+05  0.000000E+00
        28  2.767891E-01  0.000000E+00  0.000000E+00
        29  2.423375E-27  0.000000E+00  0.000000E+00
