
 displacements (vx,vy,vz) for set NALL and time  0.1000000E+01

         1  0.000000E+00  0.000000E+00  0.000000E+00
         2  0.000000E+00  0.000000E+00  0.000000E+00
         3 -2.800959E-05  2.800959E-05 -5.476127E-05
         4 -2.800959E-05 -2.800959E-05 -5.476127E-05
         5  0.000000E+00  0.000000E+00  0.000000E+00
         6  0.000000E+00  0.000000E+00  0.000000E+00
         7  2.800959E-05  2.800959E-05 -5.476127E-05
         8  2.800959E-05 -2.800959E-05 -5.476127E-05
         9  0.000000E+00  0.000000E+00  0.000000E+00
        10  5.444394E-06 -5.444394E-06 -2.737957E-05
        11 -2.800702E-05 -4.540534E-19 -1.029949E-04
        12  5.444394E-06  5.444394E-06 -2.737957E-05
        13  0.000000E+00  0.000000E+00  0.000000E+00
        14  0.000000E+00  0.000000E+00  0.000000E+00
        15  1.048226E-18  2.800702E-05 -1.029949E-04
        16  1.140786E-19 -2.800702E-05 -1.029949E-04
        17  0.000000E+00  0.000000E+00  0.000000E+00
        18 -5.444394E-06 -5.444394E-06 -2.737957E-05
        19  2.800702E-05  4.294195E-19 -1.029949E-04
        20 -5.444394E-06  5.444394E-06 -2.737957E-05
        21  5.193435E-06  5.193435E-06 -1.394618E-04
        22  5.193435E-06 -5.193435E-06 -1.394618E-04
        23  0.000000E+00  0.000000E+00 -3.960515E-04
        24  0.000000E+00  0.000000E+00 -3.960515E-04
        25 -5.193435E-06  5.193435E-06 -1.394618E-04
        26 -5.193435E-06 -5.193435E-06 -1.394618E-04
        27  0.000000E+00  0.000000E+00 -3.960515E-04
        28  0.000000E+00  0.000000E+00 -3.960515E-04
        29  5.193685E-06  6.942216E-18 -1.494003E-04
        30 -1.715894E-06  1.715894E-06 -2.677568E-04
        31  0.000000E+00  0.000000E+00 -3.922471E-04
        32 -1.715894E-06 -1.715894E-06 -2.677568E-04
        33  3.841848E-18  5.193685E-06 -1.494003E-04
        34  1.166070E-17 -5.193685E-06 -1.494003E-04
        35  0.000000E+00  0.000000E+00 -3.922471E-04
        36  0.000000E+00  0.000000E+00 -3.922471E-04
        37 -5.193685E-06  1.452577E-17 -1.494003E-04
        38  1.715894E-06  1.715894E-06 -2.677568E-04
        39  0.000000E+00  0.000000E+00 -3.922471E-04
        40  1.715894E-06 -1.715894E-06 -2.677568E-04
