    1C
    1UUSER                                                              
    1UDATE              15.december.2018                                
    1UTIME              15:49:20                                        
    1UHOST                                                              
    1UPGM               CalculiX                                        
    1UVERSION           Version 2.15                             
    1UCOMPILETIME       Sa 15. Dez 14:32:01 CET 2018                    
    1UDIR                                                               
    1UDBN                                                               
    1UMAT    1EL                                                        
    1UMAT    2SI1                                                       
    2C                            40                                     1
 -1         1 1.00000E+00 1.00000E+00 0.00000E+00
 -1         2 1.00000E+00 0.00000E+00 0.00000E+00
 -1         3 1.00000E+00 0.00000E+00 1.00000E+00
 -1         4 1.00000E+00 1.00000E+00 1.00000E+00
 -1         5 0.00000E+00 1.00000E+00 0.00000E+00
 -1         6 0.00000E+00 0.00000E+00 0.00000E+00
 -1         7 0.00000E+00 0.00000E+00 1.00000E+00
 -1         8 0.00000E+00 1.00000E+00 1.00000E+00
 -1         9 1.00000E+00 5.00000E-01 0.00000E+00
 -1        10 1.00000E+00 0.00000E+00 5.00000E-01
 -1        11 1.00000E+00 5.00000E-01 1.00000E+00
 -1        12 1.00000E+00 1.00000E+00 5.00000E-01
 -1        13 5.00000E-01 1.00000E+00 0.00000E+00
 -1        14 5.00000E-01 0.00000E+00 0.00000E+00
 -1        15 5.00000E-01 0.00000E+00 1.00000E+00
 -1        16 5.00000E-01 1.00000E+00 1.00000E+00
 -1        17 0.00000E+00 5.00000E-01 0.00000E+00
 -1        18 0.00000E+00 0.00000E+00 5.00000E-01
 -1        19 0.00000E+00 5.00000E-01 1.00000E+00
 -1        20 0.00000E+00 1.00000E+00 5.00000E-01
 -1        21 7.50000E-01 7.50000E-01 1.00000E+00
 -1        22 7.50000E-01 2.50000E-01 1.00000E+00
 -1        23 7.50000E-01 2.50000E-01 1.50000E+00
 -1        24 7.50000E-01 7.50000E-01 1.50000E+00
 -1        25 2.50000E-01 7.50000E-01 1.00000E+00
 -1        26 2.50000E-01 2.50000E-01 1.00000E+00
 -1        27 2.50000E-01 2.50000E-01 1.50000E+00
 -1        28 2.50000E-01 7.50000E-01 1.50000E+00
 -1        29 7.50000E-01 5.00000E-01 1.00000E+00
 -1        30 7.50000E-01 2.50000E-01 1.25000E+00
 -1        31 7.50000E-01 5.00000E-01 1.50000E+00
 -1        32 7.50000E-01 7.50000E-01 1.25000E+00
 -1        33 5.00000E-01 7.50000E-01 1.00000E+00
 -1        34 5.00000E-01 2.50000E-01 1.00000E+00
 -1        35 5.00000E-01 2.50000E-01 1.50000E+00
 -1        36 5.00000E-01 7.50000E-01 1.50000E+00
 -1        37 2.50000E-01 5.00000E-01 1.00000E+00
 -1        38 2.50000E-01 2.50000E-01 1.25000E+00
 -1        39 2.50000E-01 5.00000E-01 1.50000E+00
 -1        40 2.50000E-01 7.50000E-01 1.25000E+00
 -3
    3C                             2                                     1
 -1         1    4    0    1
 -2         1         2         3         4         5         6         7         8         9        10
 -2        11        12        13        14        15        16        17        18        19        20
 -1         2    4    0    1
 -2        21        22        23        24        25        26        27        28        29        30
 -2        31        32        33        34        35        36        37        38        39        40
 -3
    1PSTEP                         1           2           1          
  100CL  101 1.000000000          40                     0    1           1
 -4  CONTACT     6    1
 -5  COPEN       1    4    1    1
 -5  CSLIP1      1    4    2    2
 -5  CSLIP2      1    4    3    3
 -5  CPRESS      1    4    1    2
 -5  CSHEAR1     1    4    2    3
 -5  CSHEAR2     1    4    3    1
 -1         1 0.00000E+00 0.00000E+00 0.00000E+00 0.00000E+00 0.00000E+00 0.00000E+00
 -1         2 0.00000E+00 0.00000E+00 0.00000E+00 0.00000E+00 0.00000E+00 0.00000E+00
 -1         3 0.00000E+00 0.00000E+00 0.00000E+00 0.00000E+00 0.00000E+00 0.00000E+00
 -1         4 0.00000E+00 0.00000E+00 0.00000E+00 0.00000E+00 0.00000E+00 0.00000E+00
 -1         5 0.00000E+00 0.00000E+00 0.00000E+00 0.00000E+00 0.00000E+00 0.00000E+00
 -1         6 0.00000E+00 0.00000E+00 0.00000E+00 0.00000E+00 0.00000E+00 0.00000E+00
 -1         7 0.00000E+00 0.00000E+00 0.00000E+00 0.00000E+00 0.00000E+00 0.00000E+00
 -1         8 0.00000E+00 0.00000E+00 0.00000E+00 0.00000E+00 0.00000E+00 0.00000E+00
 -1         9 0.00000E+00 0.00000E+00 0.00000E+00 0.00000E+00 0.00000E+00 0.00000E+00
 -1        10 0.00000E+00 0.00000E+00 0.00000E+00 0.00000E+00 0.00000E+00 0.00000E+00
 -1        11 0.00000E+00 0.00000E+00 0.00000E+00 0.00000E+00 0.00000E+00 0.00000E+00
 -1        12 0.00000E+00 0.00000E+00 0.00000E+00 0.00000E+00 0.00000E+00 0.00000E+00
 -1        13 0.00000E+00 0.00000E+00 0.00000E+00 0.00000E+00 0.00000E+00 0.00000E+00
 -1        14 0.00000E+00 0.00000E+00 0.00000E+00 0.00000E+00 0.00000E+00 0.00000E+00
 -1        15 0.00000E+00 0.00000E+00 0.00000E+00 0.00000E+00 0.00000E+00 0.00000E+00
 -1        16 0.00000E+00 0.00000E+00 0.00000E+00 0.00000E+00 0.00000E+00 0.00000E+00
 -1        17 0.00000E+00 0.00000E+00 0.00000E+00 0.00000E+00 0.00000E+00 0.00000E+00
 -1        18 0.00000E+00 0.00000E+00 0.00000E+00 0.00000E+00 0.00000E+00 0.00000E+00
 -1        19 0.00000E+00 0.00000E+00 0.00000E+00 0.00000E+00 0.00000E+00 0.00000E+00
 -1        20 0.00000E+00 0.00000E+00 0.00000E+00 0.00000E+00 0.00000E+00 0.00000E+00
 -1        21-2.44518E-05 4.93832E-02 7.28844E-05 2.44518E+02 4.89036E+01 8.28076E-02
 -1        22-2.44518E-05 4.93832E-02-7.28843E-05 2.44518E+02 4.89036E+01-8.28054E-02
 -1        23 0.00000E+00 0.00000E+00 0.00000E+00 0.00000E+00 0.00000E+00 0.00000E+00
 -1        24 0.00000E+00 0.00000E+00 0.00000E+00 0.00000E+00 0.00000E+00 0.00000E+00
 -1        25-7.68520E-07 4.93718E-02 4.16386E-06 7.68520E+00 1.53704E+00-2.62007E-02
 -1        26-7.68520E-07 4.93718E-02-4.16379E-06 7.68520E+00 1.53704E+00 2.61941E-02
 -1        27 0.00000E+00 0.00000E+00 0.00000E+00 0.00000E+00 0.00000E+00 0.00000E+00
 -1        28 0.00000E+00 0.00000E+00 0.00000E+00 0.00000E+00 0.00000E+00 0.00000E+00
 -1        29-2.44518E-05 4.93832E-02 1.85237E-11 2.44518E+02 4.89036E+01 1.08912E-06
 -1        30 0.00000E+00 0.00000E+00 0.00000E+00 0.00000E+00 0.00000E+00 0.00000E+00
 -1        31 0.00000E+00 0.00000E+00 0.00000E+00 0.00000E+00 0.00000E+00 0.00000E+00
 -1        32 0.00000E+00 0.00000E+00 0.00000E+00 0.00000E+00 0.00000E+00 0.00000E+00
 -1        33-1.26102E-05 4.93775E-02 3.85241E-05 1.26102E+02 2.52203E+01 2.83035E-02
 -1        34-1.26102E-05 4.93775E-02-3.85241E-05 1.26102E+02 2.52203E+01-2.83057E-02
 -1        35 0.00000E+00 0.00000E+00 0.00000E+00 0.00000E+00 0.00000E+00 0.00000E+00
 -1        36 0.00000E+00 0.00000E+00 0.00000E+00 0.00000E+00 0.00000E+00 0.00000E+00
 -1        37-7.68520E-07 4.93718E-02 3.46161E-11 7.68520E+00 1.53704E+00-3.27221E-06
 -1        38 0.00000E+00 0.00000E+00 0.00000E+00 0.00000E+00 0.00000E+00 0.00000E+00
 -1        39 0.00000E+00 0.00000E+00 0.00000E+00 0.00000E+00 0.00000E+00 0.00000E+00
 -1        40 0.00000E+00 0.00000E+00 0.00000E+00 0.00000E+00 0.00000E+00 0.00000E+00
 -3
    1PSTEP                         1           1           2          
  100CL  102 0.00000E+00          40                     3    2           1
 -4  DOR1  Rx    4    1
 -5  dD1dRx      1    2    1    0
 -5  dD2dRx      1    2    1    0
 -5  dD3dRx      1    2    1    0
 -5  ALL         1    2    0    0    1ALL
 -1         1 0.00000E+00 0.00000E+00 0.00000E+00
 -1         2 0.00000E+00 0.00000E+00 0.00000E+00
 -1         3 6.01896E-05 1.87196E-04 5.41982E-06
 -1         4-6.05136E-05 1.87034E-04-4.77713E-06
 -1         5 0.00000E+00 0.00000E+00 0.00000E+00
 -1         6 0.00000E+00 0.00000E+00 0.00000E+00
 -1         7 6.69536E-05 6.26204E-05 5.70718E-05
 -1         8-6.72324E-05 6.26251E-05-5.71260E-05
 -1         9 0.00000E+00 0.00000E+00 0.00000E+00
 -1        10 2.89588E-05 9.17581E-05-7.42125E-06
 -1        11-1.87325E-07 1.84908E-04 2.86211E-07
 -1        12-2.90506E-05 9.16001E-05 7.72252E-06
 -1        13 0.00000E+00 0.00000E+00 0.00000E+00
 -1        14 0.00000E+00 0.00000E+00 0.00000E+00
 -1        15 6.25029E-05 1.28167E-04 2.90722E-05
 -1        16-6.27849E-05 1.28077E-04-2.87730E-05
 -1        17 0.00000E+00 0.00000E+00 0.00000E+00
 -1        18 3.59033E-05 1.65584E-05 3.75650E-05
 -1        19-1.76200E-07 5.77320E-05-4.46717E-08
 -1        20-3.59446E-05 1.65818E-05-3.76019E-05
 -1        21 5.36236E-05-3.01992E-04-3.76289E-06
 -1        22-5.28199E-05-3.01631E-04 4.20379E-06
 -1        23 0.00000E+00 0.00000E+00-2.75985E-06
 -1        24 0.00000E+00 0.00000E+00 3.98887E-06
 -1        25 4.51057E-05-1.55380E-04-2.31445E-05
 -1        26-4.42313E-05-1.55362E-04 2.32615E-05
 -1        27 0.00000E+00 0.00000E+00 3.96120E-05
 -1        28 0.00000E+00 0.00000E+00-3.93707E-05
 -1        29 3.50909E-07-3.00699E-04 2.14809E-07
 -1        30-2.01869E-05-1.21641E-04-2.07486E-06
 -1        31 0.00000E+00 0.00000E+00 6.95186E-07
 -1        32 2.06603E-05-1.21919E-04 3.03311E-06
 -1        33 5.09061E-05-2.28164E-04-1.37259E-05
 -1        34-5.00429E-05-2.27977E-04 1.40039E-05
 -1        35 0.00000E+00 0.00000E+00 1.74403E-05
 -1        36 0.00000E+00 0.00000E+00-1.66799E-05
 -1        37 3.98572E-07-1.58800E-04 4.66990E-08
 -1        38-2.00054E-05-9.56857E-05 4.13325E-05
 -1        39 0.00000E+00 0.00000E+00 1.49022E-07
 -1        40 2.05525E-05-9.57529E-05-4.11813E-05
 -3
    1PSTEP                         2           1           2          
  100CL  103 0.00000E+00          40                     3    3           1
 -4  DOR1  Ry    4    1
 -5  dD1dRy      1    2    1    0
 -5  dD2dRy      1    2    1    0
 -5  dD3dRy      1    2    1    0
 -5  ALL         1    2    0    0    1ALL
 -1         1 0.00000E+00 0.00000E+00 0.00000E+00
 -1         2 0.00000E+00 0.00000E+00 0.00000E+00
 -1         3-8.76379E-05 9.95696E-06 1.76297E-05
 -1         4-8.76379E-05-9.95696E-06 1.76297E-05
 -1         5 0.00000E+00 0.00000E+00 0.00000E+00
 -1         6 0.00000E+00 0.00000E+00 0.00000E+00
 -1         7-1.03230E-04-6.13356E-06-3.14608E-05
 -1         8-1.03230E-04 6.13357E-06-3.14608E-05
 -1         9 0.00000E+00 0.00000E+00 0.00000E+00
 -1        10-4.74479E-05 5.87309E-06 9.24584E-06
 -1        11-9.10739E-05 3.33396E-12 1.20742E-05
 -1        12-4.74479E-05-5.87309E-06 9.24583E-06
 -1        13 0.00000E+00 0.00000E+00 0.00000E+00
 -1        14 0.00000E+00 0.00000E+00 0.00000E+00
 -1        15-9.83723E-05 7.61591E-06 3.35154E-05
 -1        16-9.83723E-05-7.61590E-06 3.35154E-05
 -1        17 0.00000E+00 0.00000E+00 0.00000E+00
 -1        18-3.77078E-05-4.70129E-06-1.52767E-05
 -1        19-1.10757E-04 7.08540E-12-3.00621E-05
 -1        20-3.77078E-05 4.70129E-06-1.52767E-05
 -1        21 2.16421E-04-1.64241E-05 2.67641E-05
 -1        22 2.16421E-04 1.64240E-05 2.67641E-05
 -1        23 0.00000E+00 0.00000E+00 6.60717E-05
 -1        24 0.00000E+00 0.00000E+00 6.60717E-05
 -1        25 1.77623E-04-6.15954E-06 9.41089E-06
 -1        26 1.77623E-04 6.15951E-06 9.41090E-06
 -1        27 0.00000E+00 0.00000E+00 3.33518E-05
 -1        28 0.00000E+00 0.00000E+00 3.33518E-05
 -1        29 2.12860E-04-1.33925E-11 2.73532E-05
 -1        30 9.66777E-05 9.14961E-06 5.20443E-05
 -1        31 0.00000E+00 0.00000E+00 6.88441E-05
 -1        32 9.66777E-05-9.14963E-06 5.20443E-05
 -1        33 1.96732E-04-9.79974E-06 3.41568E-05
 -1        34 1.96732E-04 9.79971E-06 3.41568E-05
 -1        35 0.00000E+00 0.00000E+00 6.63215E-05
 -1        36 0.00000E+00 0.00000E+00 6.63215E-05
 -1        37 1.79294E-04-1.73780E-11 9.89834E-06
 -1        38 9.63309E-05 6.47733E-06 1.37936E-05
 -1        39 0.00000E+00 0.00000E+00 3.69156E-05
 -1        40 9.63309E-05-6.47735E-06 1.37936E-05
 -3
    1PSTEP                         3           1           2          
  100CL  104 0.00000E+00          40                     3    4           1
 -4  DOR1  Rz    4    1
 -5  dD1dRz      1    2    1    0
 -5  dD2dRz      1    2    1    0
 -5  dD3dRz      1    2    1    0
 -5  ALL         1    2    0    0    1ALL
 -1         1 0.00000E+00 0.00000E+00 0.00000E+00
 -1         2 0.00000E+00 0.00000E+00 0.00000E+00
 -1         3-1.22357E-06-9.72030E-06 2.85954E-06
 -1         4 1.23793E-06-9.73222E-06-2.85542E-06
 -1         5 0.00000E+00 0.00000E+00 0.00000E+00
 -1         6 0.00000E+00 0.00000E+00 0.00000E+00
 -1         7 8.02308E-06-2.02820E-06-7.46718E-08
 -1         8-8.02476E-06-2.02771E-06 7.28086E-08
 -1         9 0.00000E+00 0.00000E+00 0.00000E+00
 -1        10 4.71226E-06-7.64281E-06-1.10861E-06
 -1        11 1.15258E-09-1.01589E-05 2.60930E-09
 -1        12-4.70265E-06-7.66018E-06 1.11071E-06
 -1        13 0.00000E+00 0.00000E+00 0.00000E+00
 -1        14 0.00000E+00 0.00000E+00 0.00000E+00
 -1        15 4.57686E-06 2.48623E-06 1.85380E-08
 -1        16-4.57391E-06 2.47562E-06-1.43585E-08
 -1        17 0.00000E+00 0.00000E+00 0.00000E+00
 -1        18 4.02475E-06 1.53375E-06 1.41370E-06
 -1        19-8.00070E-09-1.44472E-06-2.81596E-09
 -1        20-4.02571E-06 1.53665E-06-1.41473E-06
 -1        21-7.92105E-06-1.48700E-05-5.00763E-07
 -1        22 7.94517E-06-1.48356E-05 5.04724E-07
 -1        23 0.00000E+00 0.00000E+00 9.75233E-06
 -1        24 0.00000E+00 0.00000E+00-9.74012E-06
 -1        25-7.64643E-06 7.93054E-07-1.83660E-07
 -1        26 7.66523E-06 7.90106E-07 1.83898E-07
 -1        27 0.00000E+00 0.00000E+00-8.43265E-06
 -1        28 0.00000E+00 0.00000E+00 8.43592E-06
 -1        29 5.95560E-09-1.58251E-05 1.76878E-09
 -1        30 9.25806E-06-1.22195E-05 5.11434E-06
 -1        31 0.00000E+00 0.00000E+00 1.35299E-08
 -1        32-9.23529E-06-1.22489E-05-5.10356E-06
 -1        33-8.77165E-06 3.73372E-06 2.27087E-08
 -1        34 8.78729E-06 3.74834E-06-1.80126E-08
 -1        35 0.00000E+00 0.00000E+00-6.30320E-07
 -1        36 0.00000E+00 0.00000E+00 6.32583E-07
 -1        37 5.91357E-09 1.66944E-06-9.94482E-10
 -1        38 8.32152E-06 5.36122E-06-4.13575E-06
 -1        39 0.00000E+00 0.00000E+00 4.40357E-09
 -1        40-8.32028E-06 5.35446E-06 4.13850E-06
 -3
 9999
