    1C
    1UUSER                                                              
    1UDATE              15.december.2018                                
    1UTIME              15:49:20                                        
    1UHOST                                                              
    1UPGM               CalculiX                                        
    1UVERSION           Version 2.15                             
    1UCOMPILETIME       Sa 15. Dez 14:32:01 CET 2018                    
    1UDIR                                                               
    1UDBN                                                               
    1UMAT    1EL                                                        
    1UMAT    2SI1                                                       
    2C                            28                                     1
 -1         1 1.00000E+00 1.00000E+00-1.49012E-08
 -1         2 1.00000E+00 0.00000E+00-1.49012E-08
 -1         3 1.00000E+00 0.00000E+00 1.00000E+00
 -1         4 1.00000E+00 1.00000E+00 1.00000E+00
 -1         5-7.45058E-09 1.00000E+00-1.49012E-08
 -1         6-7.45058E-09 0.00000E+00-1.49012E-08
 -1         7-7.45058E-09 0.00000E+00 1.00000E+00
 -1         8-7.45058E-09 1.00000E+00 1.00000E+00
 -1        18 6.41422E-01 5.00000E-01 1.20000E+00
 -1        19 5.00000E-01 3.58578E-01 1.20000E+00
 -1        20 5.00000E-01 3.58578E-01 1.00000E+00
 -1        21 6.41422E-01 5.00000E-01 1.00000E+00
 -1        22 5.70711E-01 4.29289E-01 1.20000E+00
 -1        23 5.00000E-01 3.58578E-01 1.10000E+00
 -1        24 5.70711E-01 4.29289E-01 1.00000E+00
 -1        25 6.41422E-01 5.00000E-01 1.10000E+00
 -1        26 5.00000E-01 6.41422E-01 1.20000E+00
 -1        27 3.58578E-01 5.00000E-01 1.20000E+00
 -1        28 3.58578E-01 5.00000E-01 1.00000E+00
 -1        29 5.00000E-01 6.41422E-01 1.00000E+00
 -1        30 4.29289E-01 5.70711E-01 1.20000E+00
 -1        31 3.58578E-01 5.00000E-01 1.10000E+00
 -1        32 4.29289E-01 5.70711E-01 1.00000E+00
 -1        33 5.00000E-01 6.41422E-01 1.10000E+00
 -1        34 5.70711E-01 5.70711E-01 1.20000E+00
 -1        35 4.29289E-01 4.29289E-01 1.20000E+00
 -1        36 4.29289E-01 4.29289E-01 1.00000E+00
 -1        37 5.70711E-01 5.70711E-01 1.00000E+00
 -3
    3C                             2                                     1
 -1         1    1    0    1
 -2         1         2         3         4         5         6         7         8
 -1         2    4    0    1
 -2        26        18        19        27        29        21        20        28        34        22
 -2        35        30        33        25        23        31        37        24        36        32
 -3
    1PSTEP                         1           1           1          
  100CL  101 1.000000000          28                     0    1           1
 -4  DISP        4    1
 -5  D1          1    2    1    0
 -5  D2          1    2    2    0
 -5  D3          1    2    3    0
 -5  ALL         1    2    0    0    1ALL
 -1         1 0.00000E+00 0.00000E+00 0.00000E+00
 -1         2 0.00000E+00 0.00000E+00 0.00000E+00
 -1         3 0.00000E+00 0.00000E+00-1.41648E-05
 -1         4 0.00000E+00 0.00000E+00-1.41416E-05
 -1         5 0.00000E+00 0.00000E+00 0.00000E+00
 -1         6 0.00000E+00 0.00000E+00 0.00000E+00
 -1         7 0.00000E+00 0.00000E+00-1.41416E-05
 -1         8 0.00000E+00 0.00000E+00-1.41648E-05
 -1        18 1.57211E-05 1.67244E-05-1.13824E-04
 -1        19-1.67244E-05-1.57211E-05-1.13824E-04
 -1        20-1.57438E-05-1.67471E-05-2.63365E-05
 -1        21 1.67471E-05 1.57438E-05-2.63365E-05
 -1        22 7.66216E-06-7.66216E-06-1.15292E-04
 -1        23-1.09465E-05-2.07338E-05-7.02360E-05
 -1        24 8.66489E-06-8.66489E-06-2.55421E-05
 -1        25 2.07338E-05 1.09465E-05-7.02360E-05
 -1        26 1.67244E-05 1.57211E-05-1.13824E-04
 -1        27-1.57211E-05-1.67244E-05-1.13824E-04
 -1        28-1.67471E-05-1.57438E-05-2.63365E-05
 -1        29 1.57438E-05 1.67471E-05-2.63365E-05
 -1        30-7.66216E-06 7.66216E-06-1.15292E-04
 -1        31-2.07338E-05-1.09465E-05-7.02360E-05
 -1        32-8.66489E-06 8.66489E-06-2.55421E-05
 -1        33 1.09465E-05 2.07338E-05-7.02360E-05
 -1        34 8.05803E-06 8.05803E-06-1.19058E-04
 -1        35-8.05803E-06-8.05803E-06-1.19058E-04
 -1        36-8.08148E-06-8.08148E-06-2.38592E-05
 -1        37 8.08148E-06 8.08148E-06-2.38592E-05
 -3
    1PSTEP                         2           1           1          
  100CL  101 1.000000000          28                     0    1           1
 -4  STRESS      6    1
 -5  SXX         1    4    1    1
 -5  SYY         1    4    2    2
 -5  SZZ         1    4    3    3
 -5  SXY         1    4    1    2
 -5  SYZ         1    4    2    3
 -5  SZX         1    4    3    1
 -1         1-1.71325E+00-1.71325E+00-3.99747E+00-7.23922E-12 6.64313E-09 6.64353E-09
 -1         2-1.71606E+00-1.71606E+00-4.00402E+00 7.23940E-12 6.64313E-09-6.64272E-09
 -1         3-1.71606E+00-1.71606E+00-4.00402E+00-3.61977E-11 1.87298E-03-1.87300E-03
 -1         4-1.71325E+00-1.71325E+00-3.99747E+00 3.61968E-11 1.87298E-03 1.87295E-03
 -1         5-1.71606E+00-1.71606E+00-4.00402E+00 7.23922E-12-6.64313E-09 6.64353E-09
 -1         6-1.71325E+00-1.71325E+00-3.99747E+00-7.23940E-12-6.64313E-09-6.64272E-09
 -1         7-1.71325E+00-1.71325E+00-3.99747E+00 3.61977E-11-1.87298E-03-1.87300E-03
 -1         8-1.71606E+00-1.71606E+00-4.00402E+00-3.61968E-11-1.87298E-03 1.87295E-03
 -1        18-3.17144E+00-3.17394E+00-9.99919E+01 2.64410E+00 4.62761E+00-2.40811E-02
 -1        19-3.17394E+00-3.17144E+00-9.99919E+01 2.64410E+00 2.40811E-02-4.62761E+00
 -1        20-9.96255E-01-9.93871E-01-9.99904E+01 1.52445E+00-3.11085E+00 6.21498E+00
 -1        21-9.93871E-01-9.96255E-01-9.99904E+01 1.52445E+00-6.21498E+00 3.11085E+00
 -1        22-3.17269E+00-3.17269E+00-9.99919E+01 2.64410E+00 2.32585E+00-2.32585E+00
 -1        23-2.08510E+00-2.08266E+00-9.99911E+01 2.08428E+00-1.54338E+00 7.93686E-01
 -1        24-9.95063E-01-9.95063E-01-9.99904E+01 1.52445E+00-4.66291E+00 4.66291E+00
 -1        25-2.08266E+00-2.08510E+00-9.99911E+01 2.08428E+00-7.93686E-01 1.54338E+00
 -1        26-3.17394E+00-3.17144E+00-9.99919E+01 2.64410E+00-2.40811E-02 4.62761E+00
 -1        27-3.17144E+00-3.17394E+00-9.99919E+01 2.64410E+00-4.62761E+00 2.40811E-02
 -1        28-9.93871E-01-9.96255E-01-9.99904E+01 1.52445E+00 6.21498E+00-3.11085E+00
 -1        29-9.96255E-01-9.93871E-01-9.99904E+01 1.52445E+00 3.11085E+00-6.21498E+00
 -1        30-3.17269E+00-3.17269E+00-9.99919E+01 2.64410E+00-2.32585E+00 2.32585E+00
 -1        31-2.08266E+00-2.08510E+00-9.99911E+01 2.08428E+00 7.93686E-01-1.54338E+00
 -1        32-9.95063E-01-9.95063E-01-9.99904E+01 1.52445E+00 4.66291E+00-4.66291E+00
 -1        33-2.08510E+00-2.08266E+00-9.99911E+01 2.08428E+00 1.54338E+00-7.93686E-01
 -1        34-3.17269E+00-3.17269E+00-9.99919E+01 2.64410E+00 2.30176E+00 2.30176E+00
 -1        35-3.17269E+00-3.17269E+00-9.99919E+01 2.64410E+00-2.30176E+00-2.30176E+00
 -1        36-9.95063E-01-9.95063E-01-9.99904E+01 1.52445E+00 1.55207E+00 1.55207E+00
 -1        37-9.95063E-01-9.95063E-01-9.99904E+01 1.52445E+00-1.55207E+00-1.55207E+00
 -3
 9999
