    1C
    1C
    1UUSER
    1UDATE              15.december.2018    
    1UTIME              15:50:01
    1UHOST
    1UPGM               CalculiX
    1UDIR
    1UDBN
    2C                                                                   1
 -1         1-1.00000E+00 0.00000E+00 0.00000E+00
 -1         2-9.80785E-01 1.95090E-01 0.00000E+00
 -1         3-9.80785E-01 1.95090E-01 1.00000E-01
 -1         4-1.00000E+00 0.00000E+00 1.00000E-01
 -1         5-8.75000E-01 0.00000E+00 0.00000E+00
 -1         6-8.58187E-01 1.70704E-01-2.22045E-16
 -1         7-8.58187E-01 1.70704E-01 1.00000E-01
 -1         8-8.75000E-01 0.00000E+00 1.00000E-01
 -1         9-7.50000E-01 0.00000E+00 0.00000E+00
 -1        10-7.35589E-01 1.46318E-01 5.55112E-17
 -1        11-7.35589E-01 1.46318E-01 1.00000E-01
 -1        12-7.50000E-01 0.00000E+00 1.00000E-01
 -1        13-6.25000E-01 0.00000E+00 0.00000E+00
 -1        14-6.12991E-01 1.21931E-01 0.00000E+00
 -1        15-6.12991E-01 1.21931E-01 1.00000E-01
 -1        16-6.25000E-01 0.00000E+00 1.00000E-01
 -1        17-5.00000E-01 0.00000E+00 0.00000E+00
 -1        18-4.90393E-01 9.75452E-02 0.00000E+00
 -1        19-4.90393E-01 9.75452E-02 1.00000E-01
 -1        20-5.00000E-01 0.00000E+00 1.00000E-01
 -1        21-9.23880E-01 3.82683E-01 0.00000E+00
 -1        22-9.23880E-01 3.82683E-01 1.00000E-01
 -1        23-8.08395E-01 3.34848E-01 0.00000E+00
 -1        24-8.08395E-01 3.34848E-01 1.00000E-01
 -1        25-6.92910E-01 2.87013E-01 1.11022E-16
 -1        26-6.92910E-01 2.87013E-01 1.00000E-01
 -1        27-5.77425E-01 2.39177E-01 1.11022E-16
 -1        28-5.77425E-01 2.39177E-01 1.00000E-01
 -1        29-4.61940E-01 1.91342E-01 0.00000E+00
 -1        30-4.61940E-01 1.91342E-01 1.00000E-01
 -1        31-8.31470E-01 5.55570E-01 0.00000E+00
 -1        32-8.31470E-01 5.55570E-01 1.00000E-01
 -1        33-7.27536E-01 4.86124E-01 0.00000E+00
 -1        34-7.27536E-01 4.86124E-01 1.00000E-01
 -1        35-6.23602E-01 4.16678E-01 0.00000E+00
 -1        36-6.23602E-01 4.16678E-01 1.00000E-01
 -1        37-5.19669E-01 3.47231E-01 0.00000E+00
 -1        38-5.19669E-01 3.47231E-01 1.00000E-01
 -1        39-4.15735E-01 2.77785E-01 0.00000E+00
 -1        40-4.15735E-01 2.77785E-01 1.00000E-01
 -1        41-7.07107E-01 7.07107E-01 0.00000E+00
 -1        42-7.07107E-01 7.07107E-01 1.00000E-01
 -1        43-6.18718E-01 6.18718E-01-1.11022E-16
 -1        44-6.18718E-01 6.18718E-01 1.00000E-01
 -1        45-5.30330E-01 5.30330E-01 5.55112E-17
 -1        46-5.30330E-01 5.30330E-01 1.00000E-01
 -1        47-4.41942E-01 4.41942E-01-2.22045E-16
 -1        48-4.41942E-01 4.41942E-01 1.00000E-01
 -1        49-3.53553E-01 3.53553E-01 0.00000E+00
 -1        50-3.53553E-01 3.53553E-01 1.00000E-01
 -3
    3C                                                                   1
 -1         1    1    0WATER
 -2         1         2         3         4         5         6         7         8
 -1         2    1    0WATER
 -2         5         6         7         8         9        10        11        12
 -1         3    1    0WATER
 -2         9        10        11        12        13        14        15        16
 -1         4    1    0WATER
 -2        13        14        15        16        17        18        19        20
 -1         5    1    0WATER
 -2         2        21        22         3         6        23        24         7
 -1         6    1    0WATER
 -2         6        23        24         7        10        25        26        11
 -1         7    1    0WATER
 -2        10        25        26        11        14        27        28        15
 -1         8    1    0WATER
 -2        14        27        28        15        18        29        30        19
 -1         9    1    0WATER
 -2        21        31        32        22        23        33        34        24
 -1        10    1    0WATER
 -2        23        33        34        24        25        35        36        26
 -1        11    1    0WATER
 -2        25        35        36        26        27        37        38        28
 -1        12    1    0WATER
 -2        27        37        38        28        29        39        40        30
 -1        13    1    0WATER
 -2        31        41        42        32        33        43        44        34
 -1        14    1    0WATER
 -2        33        43        44        34        35        45        46        36
 -1        15    1    0WATER
 -2        35        45        46        36        37        47        48        38
 -1        16    1    0WATER
 -2        37        47        48        38        39        49        50        40
 -3
    1PSTEP                         1                                                                                                
  100CL  101 0.96074E+00          50                     3    1           1                                                         
 -4  V3DF        4    1                                                                                                             
 -5  V1          1    2    1    0                                                                                                   
 -5  V2          1    2    2    0                                                                                                   
 -5  V3          1    2    3    0                                                                                                   
 -5  ALL         1    2    0    0    1ALL                                                                                           
 -1         1-9.80171E-02-9.95185E-01 2.88324E-33
 -1         2-1.94151E-01-9.76063E-01 1.72007E-30
 -1         3-1.94151E-01-9.76063E-01 1.72007E-30
 -1         4-9.80171E-02-9.95185E-01 2.88324E-33
 -1         5 3.37197E-04-1.13277E+00-4.55554E-18
 -1         6-2.20744E-01-1.11120E+00 2.06096E-17
 -1         7-2.20744E-01-1.11120E+00 2.06096E-17
 -1         8 3.37197E-04-1.13277E+00-4.55554E-18
 -1         9 3.37017E-03-1.31283E+00 2.84330E-17
 -1        10-2.55891E-01-1.28690E+00 4.89717E-17
 -1        11-2.55891E-01-1.28690E+00 4.89717E-17
 -1        12 3.37017E-03-1.31283E+00 2.84330E-17
 -1        13-1.47335E-04-1.56380E+00 1.36439E-17
 -1        14-3.11071E-01-1.53326E+00 4.87779E-17
 -1        15-3.11071E-01-1.53326E+00 4.87779E-17
 -1        16-1.47335E-04-1.56380E+00 1.36439E-17
 -1        17-1.96034E-01-1.99037E+00-2.71333E-33
 -1        18-3.88302E-01-1.95213E+00-9.63628E-31
 -1        19-3.88302E-01-1.95213E+00-9.63628E-31
 -1        20-1.96034E-01-1.99037E+00-2.71333E-33
 -1        21-3.80841E-01-9.19431E-01 6.30017E-30
 -1        22-3.80841E-01-9.19431E-01 6.30017E-30
 -1        23-4.33339E-01-1.04389E+00-3.59810E-17
 -1        24-4.33339E-01-1.04389E+00-3.59810E-17
 -1        25-5.02473E-01-1.21025E+00 3.39850E-17
 -1        26-5.02473E-01-1.21025E+00 3.39850E-17
 -1        27-6.03174E-01-1.44463E+00 5.38404E-17
 -1        28-6.03174E-01-1.44463E+00 5.38404E-17
 -1        29-7.61681E-01-1.83886E+00-9.58100E-31
 -1        30-7.61681E-01-1.83886E+00-9.58100E-31
 -1        31-5.52895E-01-8.27466E-01 3.20507E-30
 -1        32-5.52895E-01-8.27466E-01 3.20507E-30
 -1        33-6.27506E-01-9.39856E-01-7.25738E-17
 -1        34-6.27506E-01-9.39856E-01-7.25738E-17
 -1        35-7.26572E-01-1.09189E+00 1.60442E-17
 -1        36-7.26572E-01-1.09189E+00 1.60442E-17
 -1        37-8.68574E-01-1.30380E+00 1.06783E-17
 -1        38-8.68574E-01-1.30380E+00 1.06783E-17
 -1        39-1.10579E+00-1.65493E+00 7.16316E-31
 -1        40-1.10579E+00-1.65493E+00 7.16316E-31
 -1        41-6.34393E-01-7.73010E-01-2.75296E-30
 -1        42-6.34393E-01-7.73010E-01-2.75296E-30
 -1        43-7.97771E-01-8.01514E-01-2.74108E-17
 -1        44-7.97771E-01-8.01514E-01-2.74108E-17
 -1        45-9.24917E-01-9.30451E-01 3.36289E-17
 -1        46-9.24917E-01-9.30451E-01 3.36289E-17
 -1        47-1.10516E+00-1.10683E+00-2.41220E-18
 -1        48-1.10516E+00-1.10683E+00-2.41220E-18
 -1        49-1.26879E+00-1.54602E+00 1.42429E-30
 -1        50-1.26879E+00-1.54602E+00 1.42429E-30
 -3
    1PSTEP                         1                                                                                                
  100CL  101 0.96074E+00          50                     3    1           1                                                         
 -4  PS3DF       1    1                                                                                                             
 -5  PS          1    1    0    0                                                                                                   
 -1         1 1.92166E+00
 -1         2 1.91875E+00
 -1         3 1.91875E+00
 -1         4 1.92166E+00
 -1         5 1.77783E+00
 -1         6 1.81795E+00
 -1         7 1.81795E+00
 -1         8 1.77783E+00
 -1         9 1.65752E+00
 -1        10 1.68573E+00
 -1        11 1.68573E+00
 -1        12 1.65752E+00
 -1        13 1.26579E+00
 -1        14 1.23721E+00
 -1        15 1.23721E+00
 -1        16 1.26579E+00
 -1        17 5.93405E-01
 -1        18 5.78068E-01
 -1        19 5.78068E-01
 -1        20 5.93405E-01
 -1        21 1.96899E+00
 -1        22 1.96899E+00
 -1        23 1.83486E+00
 -1        24 1.83486E+00
 -1        25 1.65684E+00
 -1        26 1.65684E+00
 -1        27 1.21992E+00
 -1        28 1.21992E+00
 -1        29 5.97260E-01
 -1        30 5.97260E-01
 -1        31 1.91546E+00
 -1        32 1.91546E+00
 -1        33 1.76544E+00
 -1        34 1.76544E+00
 -1        35 1.60778E+00
 -1        36 1.60778E+00
 -1        37 1.25281E+00
 -1        38 1.25281E+00
 -1        39 6.99895E-01
 -1        40 6.99895E-01
 -1        41 1.80879E+00
 -1        42 1.80879E+00
 -1        43 1.71923E+00
 -1        44 1.71923E+00
 -1        45 1.61582E+00
 -1        46 1.61582E+00
 -1        47 1.27441E+00
 -1        48 1.27441E+00
 -1        49 7.68001E-01
 -1        50 7.68001E-01
 -3
    1PSTEP                         1                                                                                                
  100CL  101 0.96074E+00          50                     3    1           1                                                         
 -4  TS3DF       1    1                                                                                                             
 -5  TS          1    1    0    0                                                                                                   
 -1         1 1.00000E+00
 -1         2 1.00000E+00
 -1         3 1.00000E+00
 -1         4 1.00000E+00
 -1         5 6.81438E-01
 -1         6 8.77467E-01
 -1         7 8.77467E-01
 -1         8 6.81438E-01
 -1         9 6.22125E-01
 -1        10 8.71574E-01
 -1        11 8.71574E-01
 -1        12 6.22125E-01
 -1        13 6.81396E-01
 -1        14 9.44658E-01
 -1        15 9.44658E-01
 -1        16 6.81396E-01
 -1        17 1.00000E+00
 -1        18 1.00000E+00
 -1        19 1.00000E+00
 -1        20 1.00000E+00
 -1        21 1.00000E+00
 -1        22 1.00000E+00
 -1        23 1.02297E+00
 -1        24 1.02297E+00
 -1        25 1.04436E+00
 -1        26 1.04436E+00
 -1        27 1.13169E+00
 -1        28 1.13169E+00
 -1        29 1.00000E+00
 -1        30 1.00000E+00
 -1        31 1.00000E+00
 -1        32 1.00000E+00
 -1        33 8.00511E-01
 -1        34 8.00511E-01
 -1        35 7.60649E-01
 -1        36 7.60649E-01
 -1        37 8.29609E-01
 -1        38 8.29609E-01
 -1        39 1.00000E+00
 -1        40 1.00000E+00
 -1        41 1.00000E+00
 -1        42 1.00000E+00
 -1        43 6.28579E-01
 -1        44 6.28579E-01
 -1        45 5.53609E-01
 -1        46 5.53609E-01
 -1        47 6.03754E-01
 -1        48 6.03754E-01
 -1        49 1.00000E+00
 -1        50 1.00000E+00
 -3
 9999
