    1C
    1UUSER                                                              
    1UDATE              15.december.2018                                
    1UTIME              15:50:35                                        
    1UHOST                                                              
    1UPGM               CalculiX                                        
    1UVERSION           Version 2.15                             
    1UCOMPILETIME       Sa 15. Dez 14:32:01 CET 2018                    
    1UDIR                                                               
    1UDBN                                                               
    1UMAT    1EL                                                        
    1UMAT    2SI1                                                       
    2C                           128                                     1
 -1         1 1.00000E+00 1.00000E+00 0.00000E+00
 -1         2 1.00000E+00 6.66667E-01 0.00000E+00
 -1         3 1.00000E+00 6.66667E-01 3.33333E-01
 -1         4 1.00000E+00 1.00000E+00 3.33333E-01
 -1         5 6.66667E-01 1.00000E+00 0.00000E+00
 -1         6 6.66667E-01 6.66667E-01 0.00000E+00
 -1         7 6.66667E-01 6.66667E-01 3.33333E-01
 -1         8 6.66667E-01 1.00000E+00 3.33333E-01
 -1         9 1.00000E+00 6.66667E-01 6.66667E-01
 -1        10 1.00000E+00 1.00000E+00 6.66667E-01
 -1        11 6.66667E-01 6.66667E-01 6.66667E-01
 -1        12 6.66667E-01 1.00000E+00 6.66667E-01
 -1        13 1.00000E+00 6.66667E-01 1.00000E+00
 -1        14 1.00000E+00 1.00000E+00 1.00000E+00
 -1        15 6.66667E-01 6.66667E-01 1.00000E+00
 -1        16 6.66667E-01 1.00000E+00 1.00000E+00
 -1        17 3.33333E-01 1.00000E+00 0.00000E+00
 -1        18 3.33333E-01 6.66667E-01 0.00000E+00
 -1        19 3.33333E-01 6.66667E-01 3.33333E-01
 -1        20 3.33333E-01 1.00000E+00 3.33333E-01
 -1        21 3.33333E-01 6.66667E-01 6.66667E-01
 -1        22 3.33333E-01 1.00000E+00 6.66667E-01
 -1        23 3.33333E-01 6.66667E-01 1.00000E+00
 -1        24 3.33333E-01 1.00000E+00 1.00000E+00
 -1        25 0.00000E+00 1.00000E+00 0.00000E+00
 -1        26 0.00000E+00 6.66667E-01 0.00000E+00
 -1        27 0.00000E+00 6.66667E-01 3.33333E-01
 -1        28 0.00000E+00 1.00000E+00 3.33333E-01
 -1        29 0.00000E+00 6.66667E-01 6.66667E-01
 -1        30 0.00000E+00 1.00000E+00 6.66667E-01
 -1        31 0.00000E+00 6.66667E-01 1.00000E+00
 -1        32 0.00000E+00 1.00000E+00 1.00000E+00
 -1        33 1.00000E+00 3.33333E-01 0.00000E+00
 -1        34 1.00000E+00 3.33333E-01 3.33333E-01
 -1        35 6.66667E-01 3.33333E-01 0.00000E+00
 -1        36 6.66667E-01 3.33333E-01 3.33333E-01
 -1        37 1.00000E+00 3.33333E-01 6.66667E-01
 -1        38 6.66667E-01 3.33333E-01 6.66667E-01
 -1        39 1.00000E+00 3.33333E-01 1.00000E+00
 -1        40 6.66667E-01 3.33333E-01 1.00000E+00
 -1        41 3.33333E-01 3.33333E-01 0.00000E+00
 -1        42 3.33333E-01 3.33333E-01 3.33333E-01
 -1        43 3.33333E-01 3.33333E-01 6.66667E-01
 -1        44 3.33333E-01 3.33333E-01 1.00000E+00
 -1        45 0.00000E+00 3.33333E-01 0.00000E+00
 -1        46 0.00000E+00 3.33333E-01 3.33333E-01
 -1        47 0.00000E+00 3.33333E-01 6.66667E-01
 -1        48 0.00000E+00 3.33333E-01 1.00000E+00
 -1        49 1.00000E+00 0.00000E+00 0.00000E+00
 -1        50 1.00000E+00 0.00000E+00 3.33333E-01
 -1        51 6.66667E-01 0.00000E+00 0.00000E+00
 -1        52 6.66667E-01 0.00000E+00 3.33333E-01
 -1        53 1.00000E+00 0.00000E+00 6.66667E-01
 -1        54 6.66667E-01 0.00000E+00 6.66667E-01
 -1        55 1.00000E+00 0.00000E+00 1.00000E+00
 -1        56 6.66667E-01 0.00000E+00 1.00000E+00
 -1        57 3.33333E-01 0.00000E+00 0.00000E+00
 -1        58 3.33333E-01 0.00000E+00 3.33333E-01
 -1        59 3.33333E-01 0.00000E+00 6.66667E-01
 -1        60 3.33333E-01 0.00000E+00 1.00000E+00
 -1        61 0.00000E+00 0.00000E+00 0.00000E+00
 -1        62 0.00000E+00 0.00000E+00 3.33333E-01
 -1        63 0.00000E+00 0.00000E+00 6.66667E-01
 -1        64 0.00000E+00 0.00000E+00 1.00000E+00
 -1        65 5.00000E-01 5.00000E-01 1.00000E+00
 -1        66 5.00000E-01 3.33333E-01 1.00000E+00
 -1        67 5.00000E-01 3.33333E-01 1.16667E+00
 -1        68 5.00000E-01 5.00000E-01 1.16667E+00
 -1        69 3.33333E-01 5.00000E-01 1.00000E+00
 -1        70 3.33333E-01 3.33333E-01 1.00000E+00
 -1        71 3.33333E-01 3.33333E-01 1.16667E+00
 -1        72 3.33333E-01 5.00000E-01 1.16667E+00
 -1        73 5.00000E-01 3.33333E-01 1.33333E+00
 -1        74 5.00000E-01 5.00000E-01 1.33333E+00
 -1        75 3.33333E-01 3.33333E-01 1.33333E+00
 -1        76 3.33333E-01 5.00000E-01 1.33333E+00
 -1        77 5.00000E-01 3.33333E-01 1.50000E+00
 -1        78 5.00000E-01 5.00000E-01 1.50000E+00
 -1        79 3.33333E-01 3.33333E-01 1.50000E+00
 -1        80 3.33333E-01 5.00000E-01 1.50000E+00
 -1        81 1.66667E-01 5.00000E-01 1.00000E+00
 -1        82 1.66667E-01 3.33333E-01 1.00000E+00
 -1        83 1.66667E-01 3.33333E-01 1.16667E+00
 -1        84 1.66667E-01 5.00000E-01 1.16667E+00
 -1        85 1.66667E-01 3.33333E-01 1.33333E+00
 -1        86 1.66667E-01 5.00000E-01 1.33333E+00
 -1        87 1.66667E-01 3.33333E-01 1.50000E+00
 -1        88 1.66667E-01 5.00000E-01 1.50000E+00
 -1        89 0.00000E+00 5.00000E-01 1.00000E+00
 -1        90 0.00000E+00 3.33333E-01 1.00000E+00
 -1        91 0.00000E+00 3.33333E-01 1.16667E+00
 -1        92 0.00000E+00 5.00000E-01 1.16667E+00
 -1        93 0.00000E+00 3.33333E-01 1.33333E+00
 -1        94 0.00000E+00 5.00000E-01 1.33333E+00
 -1        95 0.00000E+00 3.33333E-01 1.50000E+00
 -1        96 0.00000E+00 5.00000E-01 1.50000E+00
 -1        97 5.00000E-01 1.66667E-01 1.00000E+00
 -1        98 5.00000E-01 1.66667E-01 1.16667E+00
 -1        99 3.33333E-01 1.66667E-01 1.00000E+00
 -1       100 3.33333E-01 1.66667E-01 1.16667E+00
 -1       101 5.00000E-01 1.66667E-01 1.33333E+00
 -1       102 3.33333E-01 1.66667E-01 1.33333E+00
 -1       103 5.00000E-01 1.66667E-01 1.50000E+00
 -1       104 3.33333E-01 1.66667E-01 1.50000E+00
 -1       105 1.66667E-01 1.66667E-01 1.00000E+00
 -1       106 1.66667E-01 1.66667E-01 1.16667E+00
 -1       107 1.66667E-01 1.66667E-01 1.33333E+00
 -1       108 1.66667E-01 1.66667E-01 1.50000E+00
 -1       109 0.00000E+00 1.66667E-01 1.00000E+00
 -1       110 0.00000E+00 1.66667E-01 1.16667E+00
 -1       111 0.00000E+00 1.66667E-01 1.33333E+00
 -1       112 0.00000E+00 1.66667E-01 1.50000E+00
 -1       113 5.00000E-01 0.00000E+00 1.00000E+00
 -1       114 5.00000E-01 0.00000E+00 1.16667E+00
 -1       115 3.33333E-01 0.00000E+00 1.00000E+00
 -1       116 3.33333E-01 0.00000E+00 1.16667E+00
 -1       117 5.00000E-01 0.00000E+00 1.33333E+00
 -1       118 3.33333E-01 0.00000E+00 1.33333E+00
 -1       119 5.00000E-01 0.00000E+00 1.50000E+00
 -1       120 3.33333E-01 0.00000E+00 1.50000E+00
 -1       121 1.66667E-01 0.00000E+00 1.00000E+00
 -1       122 1.66667E-01 0.00000E+00 1.16667E+00
 -1       123 1.66667E-01 0.00000E+00 1.33333E+00
 -1       124 1.66667E-01 0.00000E+00 1.50000E+00
 -1       125 0.00000E+00 0.00000E+00 1.00000E+00
 -1       126 0.00000E+00 0.00000E+00 1.16667E+00
 -1       127 0.00000E+00 0.00000E+00 1.33333E+00
 -1       128 0.00000E+00 0.00000E+00 1.50000E+00
 -3
    3C                            54                                     1
 -1         1    1    0    1
 -2         1         2         3         4         5         6         7         8
 -1         2    1    0    1
 -2         4         3         9        10         8         7        11        12
 -1         3    1    0    1
 -2        10         9        13        14        12        11        15        16
 -1         4    1    0    1
 -2         5         6         7         8        17        18        19        20
 -1         5    1    0    1
 -2         8         7        11        12        20        19        21        22
 -1         6    1    0    1
 -2        12        11        15        16        22        21        23        24
 -1         7    1    0    1
 -2        17        18        19        20        25        26        27        28
 -1         8    1    0    1
 -2        20        19        21        22        28        27        29        30
 -1         9    1    0    1
 -2        22        21        23        24        30        29        31        32
 -1        10    1    0    1
 -2         2        33        34         3         6        35        36         7
 -1        11    1    0    1
 -2         3        34        37         9         7        36        38        11
 -1        12    1    0    1
 -2         9        37        39        13        11        38        40        15
 -1        13    1    0    1
 -2         6        35        36         7        18        41        42        19
 -1        14    1    0    1
 -2         7        36        38        11        19        42        43        21
 -1        15    1    0    1
 -2        11        38        40        15        21        43        44        23
 -1        16    1    0    1
 -2        18        41        42        19        26        45        46        27
 -1        17    1    0    1
 -2        19        42        43        21        27        46        47        29
 -1        18    1    0    1
 -2        21        43        44        23        29        47        48        31
 -1        19    1    0    1
 -2        33        49        50        34        35        51        52        36
 -1        20    1    0    1
 -2        34        50        53        37        36        52        54        38
 -1        21    1    0    1
 -2        37        53        55        39        38        54        56        40
 -1        22    1    0    1
 -2        35        51        52        36        41        57        58        42
 -1        23    1    0    1
 -2        36        52        54        38        42        58        59        43
 -1        24    1    0    1
 -2        38        54        56        40        43        59        60        44
 -1        25    1    0    1
 -2        41        57        58        42        45        61        62        46
 -1        26    1    0    1
 -2        42        58        59        43        46        62        63        47
 -1        27    1    0    1
 -2        43        59        60        44        47        63        64        48
 -1        28    1    0    1
 -2        65        66        67        68        69        70        71        72
 -1        29    1    0    1
 -2        68        67        73        74        72        71        75        76
 -1        30    1    0    1
 -2        74        73        77        78        76        75        79        80
 -1        31    1    0    1
 -2        69        70        71        72        81        82        83        84
 -1        32    1    0    1
 -2        72        71        75        76        84        83        85        86
 -1        33    1    0    1
 -2        76        75        79        80        86        85        87        88
 -1        34    1    0    1
 -2        81        82        83        84        89        90        91        92
 -1        35    1    0    1
 -2        84        83        85        86        92        91        93        94
 -1        36    1    0    1
 -2        86        85        87        88        94        93        95        96
 -1        37    1    0    1
 -2        66        97        98        67        70        99       100        71
 -1        38    1    0    1
 -2        67        98       101        73        71       100       102        75
 -1        39    1    0    1
 -2        73       101       103        77        75       102       104        79
 -1        40    1    0    1
 -2        70        99       100        71        82       105       106        83
 -1        41    1    0    1
 -2        71       100       102        75        83       106       107        85
 -1        42    1    0    1
 -2        75       102       104        79        85       107       108        87
 -1        43    1    0    1
 -2        82       105       106        83        90       109       110        91
 -1        44    1    0    1
 -2        83       106       107        85        91       110       111        93
 -1        45    1    0    1
 -2        85       107       108        87        93       111       112        95
 -1        46    1    0    1
 -2        97       113       114        98        99       115       116       100
 -1        47    1    0    1
 -2        98       114       117       101       100       116       118       102
 -1        48    1    0    1
 -2       101       117       119       103       102       118       120       104
 -1        49    1    0    1
 -2        99       115       116       100       105       121       122       106
 -1        50    1    0    1
 -2       100       116       118       102       106       122       123       107
 -1        51    1    0    1
 -2       102       118       120       104       107       123       124       108
 -1        52    1    0    1
 -2       105       121       122       106       109       125       126       110
 -1        53    1    0    1
 -2       106       122       123       107       110       126       127       111
 -1        54    1    0    1
 -2       107       123       124       108       111       127       128       112
 -3
    1PSTEP                         1           1           1          
  100CL  101 1.000000000         128                     0    1           1
 -4  DISP        4    1
 -5  D1          1    2    1    0
 -5  D2          1    2    2    0
 -5  D3          1    2    3    0
 -5  ALL         1    2    0    0    1ALL
 -1         1 0.00000E+00 0.00000E+00 0.00000E+00
 -1         2 0.00000E+00 0.00000E+00 0.00000E+00
 -1         3-2.13196E-05-2.27446E-05 3.06887E-05
 -1         4-2.30907E-05-2.30907E-05 6.42215E-05
 -1         5 0.00000E+00 0.00000E+00 0.00000E+00
 -1         6 0.00000E+00 0.00000E+00 0.00000E+00
 -1         7-2.14253E-05-2.14253E-05-4.92065E-06
 -1         8-2.27446E-05-2.13196E-05 3.06887E-05
 -1         9-7.75662E-05-7.91065E-05 5.31245E-05
 -1        10-7.85290E-05-7.85290E-05 1.04997E-04
 -1        11-7.69521E-05-7.69521E-05-1.00703E-05
 -1        12-7.91065E-05-7.75662E-05 5.31245E-05
 -1        13-1.52022E-04-1.44866E-04 6.14333E-05
 -1        14-1.44524E-04-1.44524E-04 1.17554E-04
 -1        15-1.52766E-04-1.52766E-04-1.27116E-05
 -1        16-1.44866E-04-1.52022E-04 6.14333E-05
 -1        17 0.00000E+00 0.00000E+00 0.00000E+00
 -1        18 0.00000E+00 0.00000E+00 0.00000E+00
 -1        19-2.13300E-05-1.62815E-05-3.72647E-05
 -1        20-2.26568E-05-1.62004E-05 2.71546E-06
 -1        21-7.67527E-05-7.14108E-05-7.20331E-05
 -1        22-7.90624E-05-7.61238E-05 1.19318E-05
 -1        23-1.53356E-04-1.81107E-04-8.92803E-05
 -1        24-1.45162E-04-1.71670E-04 1.87855E-05
 -1        25 0.00000E+00 0.00000E+00 0.00000E+00
 -1        26 0.00000E+00 0.00000E+00 0.00000E+00
 -1        27-2.11264E-05-1.50049E-05-7.28410E-05
 -1        28-2.29128E-05-1.44354E-05-3.09061E-05
 -1        29-7.71616E-05-6.90057E-05-1.36101E-04
 -1        30-7.84350E-05-7.49641E-05-4.03676E-05
 -1        31-1.53191E-04-1.89440E-04-1.66689E-04
 -1        32-1.45111E-04-1.79552E-04-3.73728E-05
 -1        33 0.00000E+00 0.00000E+00 0.00000E+00
 -1        34-1.62004E-05-2.26568E-05 2.71546E-06
 -1        35 0.00000E+00 0.00000E+00 0.00000E+00
 -1        36-1.62815E-05-2.13300E-05-3.72647E-05
 -1        37-7.61238E-05-7.90624E-05 1.19318E-05
 -1        38-7.14108E-05-7.67527E-05-7.20331E-05
 -1        39-1.71670E-04-1.45162E-04 1.87855E-05
 -1        40-1.81107E-04-1.53356E-04-8.92803E-05
 -1        41 0.00000E+00 0.00000E+00 0.00000E+00
 -1        42-1.61874E-05-1.61874E-05-7.93988E-05
 -1        43-7.10796E-05-7.10796E-05-1.62411E-04
 -1        44-1.81882E-04-1.81882E-04-2.79759E-04
 -1        45 0.00000E+00 0.00000E+00 0.00000E+00
 -1        46-1.60103E-05-1.48679E-05-1.19289E-04
 -1        47-7.54482E-05-6.89498E-05-2.47238E-04
 -1        48-1.73253E-04-1.89706E-04-3.94889E-04
 -1        49 0.00000E+00 0.00000E+00 0.00000E+00
 -1        50-1.44354E-05-2.29128E-05-3.09061E-05
 -1        51 0.00000E+00 0.00000E+00 0.00000E+00
 -1        52-1.50049E-05-2.11264E-05-7.28410E-05
 -1        53-7.49641E-05-7.84350E-05-4.03676E-05
 -1        54-6.90057E-05-7.71616E-05-1.36101E-04
 -1        55-1.79552E-04-1.45111E-04-3.73728E-05
 -1        56-1.89440E-04-1.53191E-04-1.66689E-04
 -1        57 0.00000E+00 0.00000E+00 0.00000E+00
 -1        58-1.48679E-05-1.60103E-05-1.19289E-04
 -1        59-6.89498E-05-7.54482E-05-2.47238E-04
 -1        60-1.89706E-04-1.73253E-04-3.94889E-04
 -1        61 0.00000E+00 0.00000E+00 0.00000E+00
 -1        62-1.41597E-05-1.41597E-05-1.61335E-04
 -1        63-7.48362E-05-7.48362E-05-3.43725E-04
 -1        64-1.80143E-04-1.80143E-04-5.22289E-04
 -1        65 2.06465E-04 2.06465E-04-2.22207E-04
 -1        66 2.09068E-04 2.04661E-04-2.88624E-04
 -1        67 1.35341E-04 1.37100E-04-3.70729E-04
 -1        68 1.36436E-04 1.36436E-04-3.02204E-04
 -1        69 2.04661E-04 2.09068E-04-2.88624E-04
 -1        70 2.06206E-04 2.06206E-04-3.71142E-04
 -1        71 1.36461E-04 1.36461E-04-4.40812E-04
 -1        72 1.37100E-04 1.35341E-04-3.70729E-04
 -1        73 6.79590E-05 6.83307E-05-4.50036E-04
 -1        74 6.80456E-05 6.80456E-05-3.81890E-04
 -1        75 6.82684E-05 6.82684E-05-5.18083E-04
 -1        76 6.83307E-05 6.79590E-05-4.50036E-04
 -1        77 0.00000E+00 0.00000E+00-5.29273E-04
 -1        78 0.00000E+00 0.00000E+00-4.61267E-04
 -1        79 0.00000E+00 0.00000E+00-5.97269E-04
 -1        80 0.00000E+00 0.00000E+00-5.29273E-04
 -1        81 2.01898E-04 2.12293E-04-3.46423E-04
 -1        82 2.02602E-04 2.08871E-04-4.34091E-04
 -1        83 1.37600E-04 1.36042E-04-5.08126E-04
 -1        84 1.37860E-04 1.34642E-04-4.35456E-04
 -1        85 6.89193E-05 6.77259E-05-5.86041E-04
 -1        86 6.89498E-05 6.73721E-05-5.17624E-04
 -1        87 0.00000E+00 0.00000E+00-6.65392E-04
 -1        88 0.00000E+00 0.00000E+00-5.97434E-04
 -1        89 2.00947E-04 2.13675E-04-4.02727E-04
 -1        90 2.01868E-04 2.09784E-04-4.95903E-04
 -1        91 1.37637E-04 1.35838E-04-5.73561E-04
 -1        92 1.37970E-04 1.34305E-04-4.99993E-04
 -1        93 6.92769E-05 6.75874E-05-6.54253E-04
 -1        94 6.93002E-05 6.71821E-05-5.85702E-04
 -1        95 0.00000E+00 0.00000E+00-7.34156E-04
 -1        96 0.00000E+00 0.00000E+00-6.66197E-04
 -1        97 2.12293E-04 2.01898E-04-3.46423E-04
 -1        98 1.34642E-04 1.37860E-04-4.35456E-04
 -1        99 2.08871E-04 2.02602E-04-4.34091E-04
 -1       100 1.36042E-04 1.37600E-04-5.08126E-04
 -1       101 6.73721E-05 6.89498E-05-5.17624E-04
 -1       102 6.77259E-05 6.89193E-05-5.86041E-04
 -1       103 0.00000E+00 0.00000E+00-5.97434E-04
 -1       104 0.00000E+00 0.00000E+00-6.65392E-04
 -1       105 2.04414E-04 2.04414E-04-4.99450E-04
 -1       106 1.37475E-04 1.37475E-04-5.77595E-04
 -1       107 6.85183E-05 6.85183E-05-6.55025E-04
 -1       108 0.00000E+00 0.00000E+00-7.34019E-04
 -1       109 2.03388E-04 2.04933E-04-5.63210E-04
 -1       110 1.37524E-04 1.37402E-04-6.44294E-04
 -1       111 6.89727E-05 6.84326E-05-7.23647E-04
 -1       112 0.00000E+00 0.00000E+00-8.02920E-04
 -1       113 2.13675E-04 2.00947E-04-4.02727E-04
 -1       114 1.34305E-04 1.37970E-04-4.99993E-04
 -1       115 2.09784E-04 2.01868E-04-4.95903E-04
 -1       116 1.35838E-04 1.37637E-04-5.73561E-04
 -1       117 6.71821E-05 6.93002E-05-5.85702E-04
 -1       118 6.75874E-05 6.92769E-05-6.54253E-04
 -1       119 0.00000E+00 0.00000E+00-6.66197E-04
 -1       120 0.00000E+00 0.00000E+00-7.34156E-04
 -1       121 2.04933E-04 2.03388E-04-5.63210E-04
 -1       122 1.37402E-04 1.37524E-04-6.44294E-04
 -1       123 6.84326E-05 6.89727E-05-7.23647E-04
 -1       124 0.00000E+00 0.00000E+00-8.02920E-04
 -1       125 2.03984E-04 2.03984E-04-6.28917E-04
 -1       126 1.37451E-04 1.37451E-04-7.11551E-04
 -1       127 6.88883E-05 6.88883E-05-7.92453E-04
 -1       128 0.00000E+00 0.00000E+00-8.71864E-04
 -3
    1PSTEP                         2           1           1          
  100CL  101 1.000000000         128                     0    1           1
 -4  STRESS      6    1
 -5  SXX         1    4    1    1
 -5  SYY         1    4    2    2
 -5  SZZ         1    4    3    3
 -5  SXY         1    4    1    2
 -5  SYZ         1    4    2    3
 -5  SZX         1    4    3    1
 -1         1 8.28039E-04 8.28039E-04 4.04696E+01 8.45615E-04-7.27624E+00-7.27624E+00
 -1         2 6.49114E-04 8.23855E-04 1.93353E+01 7.69153E-04-7.16570E+00-6.71679E+00
 -1         3 6.84609E-02-1.34667E-01 1.67374E+01-1.49872E+00-2.77304E+00-1.00063E+00
 -1         4-2.16166E-01-2.16166E-01 3.30833E+01-1.11373E+00-1.80730E+00-1.80730E+00
 -1         5 8.23855E-04 6.49114E-04 1.93353E+01 7.69153E-04-6.71679E+00-7.16570E+00
 -1         6 6.72545E-04 6.72545E-04-3.10080E+00 7.20604E-04-6.74862E+00-6.74862E+00
 -1         7 5.13671E-03 5.13671E-03-3.17073E+00-2.03403E+00-1.41702E+00-1.41702E+00
 -1         8-1.34667E-01 6.84609E-02 1.67374E+01-1.49872E+00-1.00063E+00-2.77304E+00
 -1         9-3.82851E-01 1.71691E-01 9.69082E+00-1.05358E+00-4.57726E+00-6.80044E-01
 -1        10 3.67292E-01 3.67292E-01 1.68068E+01-6.02950E-01-2.78724E+00-2.78724E+00
 -1        11-2.52258E-01-2.52258E-01-2.44711E+00-2.41998E+00-9.73757E-01-9.73757E-01
 -1        12 1.71691E-01-3.82851E-01 9.69082E+00-1.05358E+00-6.80044E-01-4.57726E+00
 -1        13 4.74200E-01 2.05895E-01 5.24203E+00 6.76832E+00-5.15817E+00-9.82323E-02
 -1        14 2.19932E-01 2.19932E-01 7.91682E+00 4.72782E+00-3.11086E+00-3.11086E+00
 -1        15 4.26512E-01 4.26512E-01-1.65479E+00 1.14212E+01-1.42475E-01-1.42475E-01
 -1        16 2.05895E-01 4.74200E-01 5.24203E+00 6.76832E+00-9.82323E-02-5.15817E+00
 -1        17 8.15578E-04 2.31134E-04 1.70986E+00 5.25230E-04-5.10314E+00-7.13685E+00
 -1        18 6.65115E-04 2.21176E-04-2.34734E+01 4.71302E-04-5.12744E+00-6.71727E+00
 -1        19-9.23175E-02-2.40298E-03-2.26847E+01-2.02861E+00 1.68676E+00-1.38970E+00
 -1        20 5.50179E-02 5.31100E-02 3.76030E+00-1.50017E+00 6.03940E-01-2.75143E+00
 -1        21 7.00376E-02-1.58196E+00-1.63737E+01-2.50356E+00 1.49986E+00-9.43537E-01
 -1        22-2.07802E-01-2.96307E+00 5.07063E+00-1.13288E+00 1.96151E+00-4.57034E+00
 -1        23 1.40569E-01 3.23151E+00-1.08384E+01 1.15678E+01 1.24690E+01 1.26927E-01
 -1        24 8.20947E-02 5.95422E+00 4.33100E+00 6.92245E+00 3.94412E+00-5.25879E+00
 -1        25 8.11046E-04 1.10404E-04-1.94689E+01 4.19986E-04-4.54631E+00-7.21605E+00
 -1        26 6.34125E-04 1.11645E-04-4.58752E+01 3.76597E-04-4.72447E+00-6.65173E+00
 -1        27-1.26447E-01 1.37781E-01-4.28563E+01-1.48791E+00 3.05327E+00-9.44055E-01
 -1        28 1.63203E-01 3.60795E-01-1.27125E+01-1.11685E+00 1.40284E+00-1.76216E+00
 -1        29 2.61735E-01-1.88611E+00-2.95435E+01-1.22239E+00 5.11003E+00-6.16668E-01
 -1        30-3.91700E-01-3.74659E+00-2.02639E+00-7.61662E-01 4.14925E+00-2.77199E+00
 -1        31-9.77005E-02 3.21724E+00-1.92291E+01 7.06632E+00 1.83747E+01 4.40386E-01
 -1        32-2.76787E-02 6.24006E+00 1.90522E+00 5.03414E+00 7.79047E+00-3.31195E+00
 -1        33 2.31134E-04 8.15578E-04 1.70986E+00 5.25230E-04-7.13685E+00-5.10314E+00
 -1        34 5.31100E-02 5.50179E-02 3.76030E+00-1.50017E+00-2.75143E+00 6.03940E-01
 -1        35 2.21176E-04 6.65115E-04-2.34734E+01 4.71302E-04-6.71727E+00-5.12744E+00
 -1        36-2.40298E-03-9.23175E-02-2.26847E+01-2.02861E+00-1.38970E+00 1.68676E+00
 -1        37-2.96307E+00-2.07802E-01 5.07063E+00-1.13288E+00-4.57034E+00 1.96151E+00
 -1        38-1.58196E+00 7.00376E-02-1.63737E+01-2.50356E+00-9.43537E-01 1.49986E+00
 -1        39 5.95422E+00 8.20947E-02 4.33100E+00 6.92245E+00-5.25879E+00 3.94412E+00
 -1        40 3.23151E+00 1.40569E-01-1.08384E+01 1.15678E+01 1.26927E-01 1.24690E+01
 -1        41 2.18984E-04 2.18984E-04-5.00035E+01 2.64783E-04-5.09650E+00-5.09650E+00
 -1        42-8.37812E-02-8.37812E-02-5.11379E+01-2.03437E+00 1.72598E+00 1.72598E+00
 -1        43 1.27929E+00 1.27929E+00-6.30712E+01-2.45120E+00 1.50534E+00 1.50534E+00
 -1        44-2.45981E+00-2.45981E+00-7.38466E+01 1.14667E+01 1.32420E+01 1.32420E+01
 -1        45 2.26710E-04 1.06481E-04-7.51114E+01 1.96367E-04-4.68000E+00-5.03952E+00
 -1        46-1.09651E-01-2.64806E-01-7.78333E+01-1.51170E+00 3.08103E+00 6.86363E-01
 -1        47 2.75945E+00 1.84600E+00-8.67421E+01-1.03019E+00 5.17344E+00 1.96426E+00
 -1        48-5.42840E+00-2.91125E+00-9.29154E+01 6.72401E+00 1.79783E+01 5.47140E+00
 -1        49 1.10404E-04 8.11046E-04-1.94689E+01 4.19986E-04-7.21605E+00-4.54631E+00
 -1        50 3.60795E-01 1.63203E-01-1.27125E+01-1.11685E+00-1.76216E+00 1.40284E+00
 -1        51 1.11645E-04 6.34125E-04-4.58752E+01 3.76597E-04-6.65173E+00-4.72447E+00
 -1        52 1.37781E-01-1.26447E-01-4.28563E+01-1.48791E+00-9.44055E-01 3.05327E+00
 -1        53-3.74659E+00-3.91700E-01-2.02639E+00-7.61662E-01-2.77199E+00 4.14925E+00
 -1        54-1.88611E+00 2.61735E-01-2.95435E+01-1.22239E+00-6.16668E-01 5.11003E+00
 -1        55 6.24006E+00-2.76787E-02 1.90522E+00 5.03414E+00-3.31195E+00 7.79047E+00
 -1        56 3.21724E+00-9.77005E-02-1.92291E+01 7.06632E+00 4.40386E-01 1.83747E+01
 -1        57 1.06481E-04 2.26710E-04-7.51114E+01 1.96367E-04-5.03952E+00-4.68000E+00
 -1        58-2.64806E-01-1.09651E-01-7.78333E+01-1.51170E+00 6.86363E-01 3.08103E+00
 -1        59 1.84600E+00 2.75945E+00-8.67421E+01-1.03019E+00 1.96426E+00 5.17344E+00
 -1        60-2.91125E+00-5.42840E+00-9.29154E+01 6.72401E+00 5.47140E+00 1.79783E+01
 -1        61 1.00643E-04 1.00643E-04-1.01566E+02 1.14607E-04-4.45595E+00-4.45595E+00
 -1        62-4.44377E-01-4.44377E-01-1.08186E+02-1.16442E+00 1.46325E+00 1.46325E+00
 -1        63 3.71763E+00 3.71763E+00-1.13585E+02-3.78436E-01 4.26328E+00 4.26328E+00
 -1        64-6.01694E+00-6.01694E+00-1.12377E+02 4.35329E+00 6.97334E+00 6.97334E+00
 -1        65 2.29247E+00 2.29247E+00-1.00685E+02-3.26207E+00-2.25305E+00-2.25305E+00
 -1        66 3.62812E+00 2.89590E+00-1.03328E+02-2.79159E+00-3.41271E+00 5.55867E+00
 -1        67-1.39216E+00-8.80071E-01-1.01578E+02 9.86723E-01-9.48332E-01-2.75258E-01
 -1        68-8.19389E-01-8.19389E-01-1.00490E+02 1.39809E+00-4.10115E-01-4.10115E-01
 -1        69 2.89590E+00 3.62812E+00-1.03328E+02-2.79159E+00 5.55867E+00-3.41271E+00
 -1        70 4.09390E+00 4.09390E+00-8.76817E+01-2.63482E+00 1.90004E+00 1.90004E+00
 -1        71-1.40592E+00-1.40592E+00-9.24736E+01 6.84902E-01-1.51211E-01-1.51211E-01
 -1        72-8.80071E-01-1.39216E+00-1.01578E+02 9.86723E-01-2.75258E-01-9.48332E-01
 -1        73-3.72603E-01-5.52125E-01-9.97728E+01 2.69089E-01-4.09622E-01 2.57211E-01
 -1        74-3.41838E-01-3.41838E-01-1.00099E+02 1.26718E-01-2.47240E-02-2.47240E-02
 -1        75-5.87599E-01-5.87599E-01-9.84598E+01 3.98797E-01-1.23582E-01-1.23582E-01
 -1        76-5.52125E-01-3.72603E-01-9.97728E+01 2.69089E-01 2.57211E-01-4.09622E-01
 -1        77 1.74714E-02 1.76662E-02-9.97277E+01 1.75574E-02-1.35272E-01 4.37144E-02
 -1        78 1.75160E-02 1.75160E-02-9.99046E+01 1.75084E-02-4.68910E-03-4.68910E-03
 -1        79 1.76342E-02 1.76342E-02-9.96637E+01 1.76199E-02-1.11093E-01-1.11093E-01
 -1        80 1.76662E-02 1.74714E-02-9.97277E+01 1.75574E-02 4.37144E-02-1.35272E-01
 -1        81 2.35692E+00 4.33690E+00-1.12044E+02-1.87683E+00 6.33411E+00-4.37756E+00
 -1        82 2.75012E+00 4.98667E+00-9.31781E+01-1.90242E+00 2.34130E+00-1.63180E+00
 -1        83-7.24215E-01-1.76654E+00-9.56246E+01 3.35539E-01 3.32723E-01-2.75033E-01
 -1        84-5.31371E-01-1.74485E+00-1.07736E+02 5.08470E-01 1.55124E-01-1.13854E+00
 -1        85-6.17774E-01-7.04867E-01-9.89684E+01 3.68282E-01 4.47645E-01-4.30244E-01
 -1        86-5.93035E-01-4.28833E-01-1.01933E+02 2.81637E-01 7.10008E-01-6.70065E-01
 -1        87 1.79737E-02 1.73578E-02-9.98717E+01 1.76458E-02 3.77061E-01-2.78947E-01
 -1        88 1.79890E-02 1.71732E-02-1.00448E+02 1.75625E-02 3.89145E-01-2.86188E-01
 -1        89 1.21449E+00 4.92940E+00-1.22396E+02-1.43308E+00 8.72284E+00-4.17817E+00
 -1        90 9.40517E-01 5.53106E+00-9.77331E+01-1.32699E+00 3.98649E+00-1.50445E+00
 -1        91-2.87587E-02-1.93310E+00-9.96502E+01 2.87271E-01 6.83298E-01-5.22465E-01
 -1        92-1.21982E-01-1.91178E+00-1.15140E+02 4.41000E-01 2.27056E-01-7.87311E-01
 -1        93-4.32954E-01-7.70711E-01-1.01063E+02 2.08163E-01 6.84079E-01-3.60930E-01
 -1        94-4.23653E-01-4.93859E-01-1.04591E+02 1.51935E-01 9.01558E-01-5.50110E-01
 -1        95 1.81579E-02 1.72891E-02-1.00566E+02 1.77025E-02 5.07831E-01-3.02030E-01
 -1        96 1.81695E-02 1.70781E-02-1.01312E+02 1.76034E-02 5.09298E-01-3.16868E-01
 -1        97 4.33690E+00 2.35692E+00-1.12044E+02-1.87683E+00-4.37756E+00 6.33411E+00
 -1        98-1.74485E+00-5.31371E-01-1.07736E+02 5.08470E-01-1.13854E+00 1.55124E-01
 -1        99 4.98667E+00 2.75012E+00-9.31781E+01-1.90242E+00-1.63180E+00 2.34130E+00
 -1       100-1.76654E+00-7.24215E-01-9.56246E+01 3.35539E-01-2.75033E-01 3.32723E-01
 -1       101-4.28833E-01-5.93035E-01-1.01933E+02 2.81637E-01-6.70065E-01 7.10008E-01
 -1       102-7.04867E-01-6.17774E-01-9.89684E+01 3.68282E-01-4.30244E-01 4.47645E-01
 -1       103 1.71732E-02 1.79890E-02-1.00448E+02 1.75625E-02-2.86188E-01 3.89145E-01
 -1       104 1.73578E-02 1.79737E-02-9.98717E+01 1.76458E-02-2.78947E-01 3.77061E-01
 -1       105 3.47272E+00 3.47272E+00-9.83556E+01-1.45266E+00-1.47788E+00-1.47788E+00
 -1       106-9.16519E-01-9.16519E-01-9.79056E+01 1.42386E-01 1.05670E-01 1.05670E-01
 -1       107-7.67961E-01-7.67961E-01-9.84386E+01 3.24595E-01 6.16146E-02 6.16146E-02
 -1       108 1.77656E-02 1.77656E-02-9.94222E+01 1.77500E-02 1.75368E-01 1.75368E-01
 -1       109 1.30897E+00 3.67341E+00-1.02054E+02-9.77520E-01-6.23656E-01-1.30466E+00