
 displacements (vx,vy,vz) for set NALL and time  0.9125000E-03

         1  1.461575E-20  1.866587E-20  5.415085E-05
         2  2.657985E-20 -2.602792E-20  5.415085E-05
         3 -1.569352E-20  1.868602E-20  5.415085E-05
         4 -1.552995E-20 -1.135413E-20  5.415085E-05
         5  6.381415E-22 -5.896687E-21  5.415085E-05
         6 -2.492564E-20 -1.408590E-20  5.415085E-05
         7  2.533385E-20  3.598451E-20  5.415085E-05
         8 -4.658661E-22 -2.424432E-21  5.415085E-05
         9  2.065457E-20  1.692130E-21  5.415085E-05
        10 -1.759279E-21  1.753944E-21  5.415085E-05
        11 -1.565399E-20 -1.958173E-21  5.415085E-05
        12  3.996084E-22 -1.512950E-21  5.415085E-05
        13 -3.213657E-21  6.270198E-21  5.415085E-05
        14  1.531766E-21 -2.017094E-20  5.415085E-05
        15 -4.479964E-22  2.746698E-20  5.415085E-05
        16  3.349150E-21 -6.757536E-21  5.415085E-05
        17 -1.208688E-20  6.927504E-21  5.415085E-05
        18  3.484608E-21 -1.744207E-21  5.415085E-05
        19  1.239171E-20 -5.459638E-21  5.415085E-05
        20 -7.351237E-22  3.653190E-21  5.415085E-05
        21 -7.143737E-21 -1.167717E-20 -5.415085E-05
        22 -9.681060E-21  6.904450E-21 -5.415085E-05
        23 -5.676073E-21 -5.003228E-22 -5.415085E-05
        24  1.736284E-20  1.505503E-20 -5.415085E-05
        25  2.360702E-21  6.365331E-21 -5.415085E-05
        26  3.271671E-20  1.673192E-20 -5.415085E-05
        27 -2.997036E-20 -4.532610E-20 -5.415085E-05
        28  2.259199E-21  4.333293E-21 -5.415085E-05
        29 -8.366051E-21  2.809953E-21 -5.415085E-05
        30  1.173226E-21  8.675287E-22 -5.415085E-05
        31  5.796668E-21 -2.233742E-21 -5.415085E-05
        32 -3.126471E-22  1.010812E-21 -5.415085E-05
        33  3.578135E-21 -2.575407E-21 -5.415085E-05
        34 -6.995414E-21  1.189873E-20 -5.415085E-05
        35  6.113175E-21 -2.300287E-20 -5.415085E-05
        36 -2.518961E-21  9.604642E-21 -5.415085E-05
        37  1.758492E-20 -7.738060E-21 -5.415085E-05
        38 -3.443310E-21  4.004996E-21 -5.415085E-05
        39 -1.390216E-20  6.259028E-21 -5.415085E-05
        40  2.963572E-21 -6.990797E-21 -5.415085E-05

 displacements (vx,vy,vz) for set NALL and time  0.7588672E-02

         1  6.997755E-19  5.185369E-18  3.750349E-03
         2  5.184969E-18 -6.270712E-18  3.750349E-03
         3 -2.486327E-19 -8.911748E-19  3.750349E-03
         4 -2.911454E-18 -3.129353E-20  3.750349E-03
         5 -1.847879E-18 -7.373621E-19  3.750349E-03
         6 -3.376391E-18  2.662950E-18  3.750349E-03
         7  2.544231E-18  8.171026E-18  3.750349E-03
         8  1.081013E-18 -5.984062E-18  3.750349E-03
         9  3.087695E-18 -4.142133E-19  3.750349E-03
        10 -1.361039E-18  1.485698E-18  3.750349E-03
        11 -1.627556E-18 -4.674636E-19  3.750349E-03
        12  7.381313E-19 -1.280973E-18  3.750349E-03
        13 -2.964441E-19  1.977452E-18  3.750349E-03
        14  8.830885E-19 -2.050393E-18  3.750349E-03
        15  8.175074E-19  4.061466E-18  3.750349E-03
        16 -1.359094E-18 -2.586158E-18  3.750349E-03
        17 -2.466885E-18  7.924177E-19  3.750349E-03
        18  5.887017E-19 -2.505606E-18  3.750349E-03
        19  1.765117E-18  1.200883E-18  3.750349E-03
        20  7.495998E-20  1.365425E-18  3.750349E-03
        21 -9.441372E-19  2.549262E-18 -3.750349E-03
        22 -2.284542E-18 -1.852230E-18 -3.750349E-03
        23  2.446379E-19 -4.475793E-18 -3.750349E-03
        24  2.110365E-18  4.898611E-18 -3.750349E-03
        25  2.294913E-18  1.584501E-19 -3.750349E-03
        26  3.127314E-18  4.181609E-19 -3.750349E-03
        27 -1.796982E-18 -5.447320E-18 -3.750349E-03
        28 -2.777481E-18  2.987677E-18 -3.750349E-03
        29 -1.184063E-18  3.218585E-19 -3.750349E-03
        30  1.938525E-19  1.894069E-18 -3.750349E-03
        31  8.964974E-19 -9.480869E-20 -3.750349E-03
        32 -6.236550E-19 -1.699170E-18 -3.750349E-03
        33  5.602240E-19  1.389735E-18 -3.750349E-03
        34  7.383564E-19 -6.809794E-19 -3.750349E-03
        35 -7.963329E-19 -5.139601E-18 -3.750349E-03
        36 -4.509538E-19  3.765270E-18 -3.750349E-03
        37  3.141278E-18  6.936509E-19 -3.750349E-03
        38 -4.626313E-19  1.622252E-18 -3.750349E-03
        39 -2.568008E-18 -1.438719E-18 -3.750349E-03
        40  5.359687E-19 -1.205937E-18 -3.750349E-03

 displacements (vx,vy,vz) for set NALL and time  0.1000000E-01

         1 -3.728663E-18  5.326537E-18  6.518635E-03
         2  7.039475E-18 -8.466352E-18  6.518635E-03
         3  3.552224E-18 -5.916582E-18  6.518635E-03
         4 -3.775322E-18  5.057926E-18  6.518635E-03
         5  1.885230E-18 -7.410963E-18  6.518635E-03
         6 -3.551335E-18  9.358768E-18  6.518635E-03
         7 -1.229187E-18  1.223750E-17  6.518635E-03
         8 -8.908976E-19 -8.514806E-18  6.518635E-03
         9  1.673015E-18 -1.269000E-18  6.518635E-03
        10 -2.915180E-18  3.258922E-18  6.518635E-03
        11  6.261642E-20 -3.055290E-19  6.518635E-03
        12  1.524379E-18 -2.870964E-18  6.518635E-03
        13 -7.006369E-19 -1.428437E-18  6.518635E-03
        14  1.420366E-18  6.017831E-20  6.518635E-03
        15  1.132707E-18  3.733590E-18  6.518635E-03
        16 -2.003547E-18 -1.155399E-18  6.518635E-03
        17 -8.156640E-19  7.299949E-19  6.518635E-03
        18  1.623241E-18 -4.894569E-18  6.518635E-03
        19 -8.859285E-19  1.626823E-18  6.518635E-03
        20 -6.393540E-19  3.768368E-18  6.518635E-03
        21  3.134029E-18  9.899167E-18 -6.518635E-03
        22  7.265203E-19 -5.562494E-18 -6.518635E-03
        23 -2.864600E-18 -7.580206E-18 -6.518635E-03
        24  1.735874E-18  7.177866E-18 -6.518635E-03
        25  1.616520E-18  4.076560E-18 -6.518635E-03
        26  1.389150E-18 -1.823792E-18 -6.518635E-03
        27 -8.684835E-19 -6.623263E-18 -6.518635E-03
        28 -4.968445E-18  3.188487E-20 -6.518635E-03
        29  2.227033E-18  1.557987E-18 -6.518635E-03
        30  3.518393E-19  3.418971E-18 -6.518635E-03
        31 -7.164735E-19 -1.303084E-19 -6.518635E-03
        32 -1.009758E-18 -3.758548E-18 -6.518635E-03
        33  1.959651E-18  6.662158E-18 -6.518635E-03
        34  1.481416E-18 -4.018197E-18 -6.518635E-03
        35 -1.891883E-18 -6.881256E-18 -6.518635E-03
        36 -1.920483E-18  3.826060E-18 -6.518635E-03
        37  1.799010E-18  1.355104E-18 -6.518635E-03
        38 -4.905593E-19  2.054587E-18 -6.518635E-03
        39 -3.069815E-18 -2.945857E-18 -6.518635E-03
        40  1.205334E-18 -1.443893E-18 -6.518635E-03
