    1C
    1UUSER                                                              
    1UDATE              15.december.2018                                
    1UTIME              15:50:22                                        
    1UHOST                                                              
    1UPGM               CalculiX                                        
    1UVERSION           Version 2.15                             
    1UCOMPILETIME       Sa 15. Dez 14:32:01 CET 2018                    
    1UDIR                                                               
    1UDBN                                                               
    1UMAT    1EL                                                        
    1UMAT    2SI1                                                       
    2C                          2960                                     1
 -1         1 0.00000E+00 0.00000E+00 0.00000E+00
 -1         2 1.25000E-01 0.00000E+00 0.00000E+00
 -1         3 2.50000E-01 0.00000E+00 0.00000E+00
 -1         4 3.75000E-01 0.00000E+00 0.00000E+00
 -1         5 5.00000E-01 0.00000E+00 0.00000E+00
 -1         6 6.25000E-01 0.00000E+00 0.00000E+00
 -1         7 7.50000E-01 0.00000E+00 0.00000E+00
 -1         8 8.75000E-01 0.00000E+00 0.00000E+00
 -1         9 1.00000E+00 0.00000E+00 0.00000E+00
 -1        10 1.00000E+00 0.00000E+00 1.25000E-01
 -1        11 1.00000E+00 0.00000E+00 2.50000E-01
 -1        12 1.00000E+00 0.00000E+00 3.75000E-01
 -1        13 1.00000E+00 0.00000E+00 5.00000E-01
 -1        14 1.00000E+00 0.00000E+00 6.25000E-01
 -1        15 1.00000E+00 0.00000E+00 7.50000E-01
 -1        16 1.00000E+00 0.00000E+00 8.75000E-01
 -1        17 1.00000E+00 0.00000E+00 1.00000E+00
 -1        18 8.75000E-01 0.00000E+00 1.00000E+00
 -1        19 7.50000E-01 0.00000E+00 1.00000E+00
 -1        20 6.25000E-01 0.00000E+00 1.00000E+00
 -1        21 5.00000E-01 0.00000E+00 1.00000E+00
 -1        22 3.75000E-01 0.00000E+00 1.00000E+00
 -1        23 2.50000E-01 0.00000E+00 1.00000E+00
 -1        24 1.25000E-01 0.00000E+00 1.00000E+00
 -1        25 0.00000E+00 0.00000E+00 1.00000E+00
 -1        26 0.00000E+00 0.00000E+00 8.75000E-01
 -1        27 0.00000E+00 0.00000E+00 7.50000E-01
 -1        28 0.00000E+00 0.00000E+00 6.25000E-01
 -1        29 0.00000E+00 0.00000E+00 5.00000E-01
 -1        30 0.00000E+00 0.00000E+00 3.75000E-01
 -1        31 0.00000E+00 0.00000E+00 2.50000E-01
 -1        32 0.00000E+00 0.00000E+00 1.25000E-01
 -1        33 5.00000E-01 0.00000E+00 8.75000E-01
 -1        34 5.00000E-01 0.00000E+00 7.50000E-01
 -1        35 5.00000E-01 0.00000E+00 6.25000E-01
 -1        36 5.00000E-01 0.00000E+00 5.00000E-01
 -1        37 5.00000E-01 0.00000E+00 3.75000E-01
 -1        38 5.00000E-01 0.00000E+00 2.50000E-01
 -1        39 5.00000E-01 0.00000E+00 1.25000E-01
 -1        40 6.25000E-01 0.00000E+00 5.00000E-01
 -1        41 7.50000E-01 0.00000E+00 5.00000E-01
 -1        42 8.75000E-01 0.00000E+00 5.00000E-01
 -1        43 7.50000E-01 0.00000E+00 6.25000E-01
 -1        44 7.50000E-01 0.00000E+00 7.50000E-01
 -1        45 7.50000E-01 0.00000E+00 8.75000E-01
 -1        46 6.25000E-01 0.00000E+00 7.50000E-01
 -1        47 6.25000E-01 0.00000E+00 6.25000E-01
 -1        48 6.25000E-01 0.00000E+00 8.75000E-01
 -1        49 8.75000E-01 0.00000E+00 7.50000E-01
 -1        50 8.75000E-01 0.00000E+00 6.25000E-01
 -1        51 8.75000E-01 0.00000E+00 8.75000E-01
 -1        52 7.50000E-01 0.00000E+00 1.25000E-01
 -1        53 7.50000E-01 0.00000E+00 2.50000E-01
 -1        54 7.50000E-01 0.00000E+00 3.75000E-01
 -1        55 6.25000E-01 0.00000E+00 2.50000E-01
 -1        56 6.25000E-01 0.00000E+00 1.25000E-01
 -1        57 6.25000E-01 0.00000E+00 3.75000E-01
 -1        58 8.75000E-01 0.00000E+00 2.50000E-01
 -1        59 8.75000E-01 0.00000E+00 1.25000E-01
 -1        60 8.75000E-01 0.00000E+00 3.75000E-01
 -1        61 1.25000E-01 0.00000E+00 5.00000E-01
 -1        62 2.50000E-01 0.00000E+00 5.00000E-01
 -1        63 3.75000E-01 0.00000E+00 5.00000E-01
 -1        64 2.50000E-01 0.00000E+00 6.25000E-01
 -1        65 2.50000E-01 0.00000E+00 7.50000E-01
 -1        66 2.50000E-01 0.00000E+00 8.75000E-01
 -1        67 1.25000E-01 0.00000E+00 7.50000E-01
 -1        68 1.25000E-01 0.00000E+00 6.25000E-01
 -1        69 1.25000E-01 0.00000E+00 8.75000E-01
 -1        70 3.75000E-01 0.00000E+00 7.50000E-01
 -1        71 3.75000E-01 0.00000E+00 6.25000E-01
 -1        72 3.75000E-01 0.00000E+00 8.75000E-01
 -1        73 2.50000E-01 0.00000E+00 1.25000E-01
 -1        74 2.50000E-01 0.00000E+00 2.50000E-01
 -1        75 2.50000E-01 0.00000E+00 3.75000E-01
 -1        76 1.25000E-01 0.00000E+00 2.50000E-01
 -1        77 1.25000E-01 0.00000E+00 1.25000E-01
 -1        78 1.25000E-01 0.00000E+00 3.75000E-01
 -1        79 3.75000E-01 0.00000E+00 2.50000E-01
 -1        80 3.75000E-01 0.00000E+00 1.25000E-01
 -1        81 3.75000E-01 0.00000E+00 3.75000E-01
 -1        82 7.50000E-01 1.25000E-01 7.50000E-01
 -1        83 6.25000E-01 1.25000E-01 7.50000E-01
 -1        84 6.25000E-01 1.25000E-01 6.25000E-01
 -1        85 7.50000E-01 1.25000E-01 6.25000E-01
 -1        86 7.50000E-01 2.50000E-01 7.50000E-01
 -1        87 6.25000E-01 2.50000E-01 7.50000E-01
 -1        88 6.25000E-01 2.50000E-01 6.25000E-01
 -1        89 7.50000E-01 2.50000E-01 6.25000E-01
 -1        90 7.50000E-01 3.75000E-01 7.50000E-01
 -1        91 6.25000E-01 3.75000E-01 7.50000E-01
 -1        92 6.25000E-01 3.75000E-01 6.25000E-01
 -1        93 7.50000E-01 3.75000E-01 6.25000E-01
 -1        94 7.50000E-01 5.00000E-01 7.50000E-01
 -1        95 6.25000E-01 5.00000E-01 7.50000E-01
 -1        96 6.25000E-01 5.00000E-01 6.25000E-01
 -1        97 7.50000E-01 5.00000E-01 6.25000E-01
 -1        98 7.50000E-01 6.25000E-01 7.50000E-01
 -1        99 6.25000E-01 6.25000E-01 7.50000E-01
 -1       100 6.25000E-01 6.25000E-01 6.25000E-01
 -1       101 7.50000E-01 6.25000E-01 6.25000E-01
 -1       102 7.50000E-01 7.50000E-01 7.50000E-01
 -1       103 6.25000E-01 7.50000E-01 7.50000E-01
 -1       104 6.25000E-01 7.50000E-01 6.25000E-01
 -1       105 7.50000E-01 7.50000E-01 6.25000E-01
 -1       106 7.50000E-01 8.75000E-01 7.50000E-01
 -1       107 6.25000E-01 8.75000E-01 7.50000E-01
 -1       108 6.25000E-01 8.75000E-01 6.25000E-01
 -1       109 7.50000E-01 8.75000E-01 6.25000E-01
 -1       110 7.50000E-01 1.00000E+00 7.50000E-01
 -1       111 6.25000E-01 1.00000E+00 7.50000E-01
 -1       112 6.25000E-01 1.00000E+00 6.25000E-01
 -1       113 7.50000E-01 1.00000E+00 6.25000E-01
 -1       114 6.25000E-01 1.25000E-01 5.00000E-01
 -1       115 7.50000E-01 1.25000E-01 5.00000E-01
 -1       116 6.25000E-01 2.50000E-01 5.00000E-01
 -1       117 7.50000E-01 2.50000E-01 5.00000E-01
 -1       118 6.25000E-01 3.75000E-01 5.00000E-01
 -1       119 7.50000E-01 3.75000E-01 5.00000E-01
 -1       120 6.25000E-01 5.00000E-01 5.00000E-01
 -1       121 7.50000E-01 5.00000E-01 5.00000E-01
 -1       122 6.25000E-01 6.25000E-01 5.00000E-01
 -1       123 7.50000E-01 6.25000E-01 5.00000E-01
 -1       124 6.25000E-01 7.50000E-01 5.00000E-01
 -1       125 7.50000E-01 7.50000E-01 5.00000E-01
 -1       126 6.25000E-01 8.75000E-01 5.00000E-01
 -1       127 7.50000E-01 8.75000E-01 5.00000E-01
 -1       128 6.25000E-01 1.00000E+00 5.00000E-01
 -1       129 7.50000E-01 1.00000E+00 5.00000E-01
 -1       130 5.00000E-01 1.25000E-01 7.50000E-01
 -1       131 5.00000E-01 1.25000E-01 6.25000E-01
 -1       132 5.00000E-01 2.50000E-01 7.50000E-01
 -1       133 5.00000E-01 2.50000E-01 6.25000E-01
 -1       134 5.00000E-01 3.75000E-01 7.50000E-01
 -1       135 5.00000E-01 3.75000E-01 6.25000E-01
 -1       136 5.00000E-01 5.00000E-01 7.50000E-01
 -1       137 5.00000E-01 5.00000E-01 6.25000E-01
 -1       138 5.00000E-01 6.25000E-01 7.50000E-01
 -1       139 5.00000E-01 6.25000E-01 6.25000E-01
 -1       140 5.00000E-01 7.50000E-01 7.50000E-01
 -1       141 5.00000E-01 7.50000E-01 6.25000E-01
 -1       142 5.00000E-01 8.75000E-01 7.50000E-01
 -1       143 5.00000E-01 8.75000E-01 6.25000E-01
 -1       144 5.00000E-01 1.00000E+00 7.50000E-01
 -1       145 5.00000E-01 1.00000E+00 6.25000E-01
 -1       146 5.00000E-01 1.25000E-01 5.00000E-01
 -1       147 5.00000E-01 2.50000E-01 5.00000E-01
 -1       148 5.00000E-01 3.75000E-01 5.00000E-01
 -1       149 5.00000E-01 5.00000E-01 5.00000E-01
 -1       150 5.00000E-01 6.25000E-01 5.00000E-01
 -1       151 5.00000E-01 7.50000E-01 5.00000E-01
 -1       152 5.00000E-01 8.75000E-01 5.00000E-01
 -1       153 5.00000E-01 1.00000E+00 5.00000E-01
 -1       154 6.25000E-01 1.25000E-01 3.75000E-01
 -1       155 7.50000E-01 1.25000E-01 3.75000E-01
 -1       156 6.25000E-01 2.50000E-01 3.75000E-01
 -1       157 7.50000E-01 2.50000E-01 3.75000E-01
 -1       158 6.25000E-01 3.75000E-01 3.75000E-01
 -1       159 7.50000E-01 3.75000E-01 3.75000E-01
 -1       160 6.25000E-01 5.00000E-01 3.75000E-01
 -1       161 7.50000E-01 5.00000E-01 3.75000E-01
 -1       162 6.25000E-01 6.25000E-01 3.75000E-01
 -1       163 7.50000E-01 6.25000E-01 3.75000E-01
 -1       164 6.25000E-01 7.50000E-01 3.75000E-01
 -1       165 7.50000E-01 7.50000E-01 3.75000E-01
 -1       166 6.25000E-01 8.75000E-01 3.75000E-01
 -1       167 7.50000E-01 8.75000E-01 3.75000E-01
 -1       168 6.25000E-01 1.00000E+00 3.75000E-01
 -1       169 7.50000E-01 1.00000E+00 3.75000E-01
 -1       170 1.25000E-01 1.25000E-01 7.50000E-01
 -1       171 0.00000E+00 1.25000E-01 7.50000E-01
 -1       172 0.00000E+00 1.25000E-01 6.25000E-01
 -1       173 1.25000E-01 1.25000E-01 6.25000E-01
 -1       174 1.25000E-01 2.50000E-01 7.50000E-01
 -1       175 0.00000E+00 2.50000E-01 7.50000E-01
 -1       176 0.00000E+00 2.50000E-01 6.25000E-01
 -1       177 1.25000E-01 2.50000E-01 6.25000E-01
 -1       178 1.25000E-01 3.75000E-01 7.50000E-01
 -1       179 0.00000E+00 3.75000E-01 7.50000E-01
 -1       180 0.00000E+00 3.75000E-01 6.25000E-01
 -1       181 1.25000E-01 3.75000E-01 6.25000E-01
 -1       182 1.25000E-01 5.00000E-01 7.50000E-01
 -1       183 0.00000E+00 5.00000E-01 7.50000E-01
 -1       184 0.00000E+00 5.00000E-01 6.25000E-01
 -1       185 1.25000E-01 5.00000E-01 6.25000E-01
 -1       186 1.25000E-01 6.25000E-01 7.50000E-01
 -1       187 0.00000E+00 6.25000E-01 7.50000E-01
 -1       188 0.00000E+00 6.25000E-01 6.25000E-01
 -1       189 1.25000E-01 6.25000E-01 6.25000E-01
 -1       190 1.25000E-01 7.50000E-01 7.50000E-01
 -1       191 0.00000E+00 7.50000E-01 7.50000E-01
 -1       192 0.00000E+00 7.50000E-01 6.25000E-01
 -1       193 1.25000E-01 7.50000E-01 6.25000E-01
 -1       194 1.25000E-01 8.75000E-01 7.50000E-01
 -1       195 0.00000E+00 8.75000E-01 7.50000E-01
 -1       196 0.00000E+00 8.75000E-01 6.25000E-01
 -1       197 1.25000E-01 8.75000E-01 6.25000E-01
 -1       198 1.25000E-01 1.00000E+00 7.50000E-01
 -1       199 0.00000E+00 1.00000E+00 7.50000E-01
 -1       200 0.00000E+00 1.00000E+00 6.25000E-01
 -1       201 1.25000E-01 1.00000E+00 6.25000E-01
 -1       202 1.25000E-01 1.25000E-01 2.50000E-01
 -1       203 0.00000E+00 1.25000E-01 2.50000E-01
 -1       204 0.00000E+00 1.25000E-01 1.25000E-01
 -1       205 1.25000E-01 1.25000E-01 1.25000E-01
 -1       206 1.25000E-01 2.50000E-01 2.50000E-01
 -1       207 0.00000E+00 2.50000E-01 2.50000E-01
 -1       208 0.00000E+00 2.50000E-01 1.25000E-01
 -1       209 1.25000E-01 2.50000E-01 1.25000E-01
 -1       210 1.25000E-01 3.75000E-01 2.50000E-01
 -1       211 0.00000E+00 3.75000E-01 2.50000E-01
 -1       212 0.00000E+00 3.75000E-01 1.25000E-01
 -1       213 1.25000E-01 3.75000E-01 1.25000E-01
 -1       214 1.25000E-01 5.00000E-01 2.50000E-01
 -1       215 0.00000E+00 5.00000E-01 2.50000E-01
 -1       216 0.00000E+00 5.00000E-01 1.25000E-01
 -1       217 1.25000E-01 5.00000E-01 1.25000E-01
 -1       218 1.25000E-01 6.25000E-01 2.50000E-01
 -1       219 0.00000E+00 6.25000E-01 2.50000E-01
 -1       220 0.00000E+00 6.25000E-01 1.25000E-01
 -1       221 1.25000E-01 6.25000E-01 1.25000E-01
 -1       222 1.25000E-01 7.50000E-01 2.50000E-01
 -1       223 0.00000E+00 7.50000E-01 2.50000E-01
 -1       224 0.00000E+00 7.50000E-01 1.25000E-01
 -1       225 1.25000E-01 7.50000E-01 1.25000E-01
 -1       226 1.25000E-01 8.75000E-01 2.50000E-01
 -1       227 0.00000E+00 8.75000E-01 2.50000E-01
 -1       228 0.00000E+00 8.75000E-01 1.25000E-01
 -1       229 1.25000E-01 8.75000E-01 1.25000E-01
 -1       230 1.25000E-01 1.00000E+00 2.50000E-01
 -1       231 0.00000E+00 1.00000E+00 2.50000E-01
 -1       232 0.00000E+00 1.00000E+00 1.25000E-01
 -1       233 1.25000E-01 1.00000E+00 1.25000E-01
 -1       234 1.00000E+00 1.25000E-01 3.75000E-01
 -1       235 8.75000E-01 1.25000E-01 3.75000E-01
 -1       236 8.75000E-01 1.25000E-01 2.50000E-01
 -1       237 1.00000E+00 1.25000E-01 2.50000E-01
 -1       238 1.00000E+00 2.50000E-01 3.75000E-01
 -1       239 8.75000E-01 2.50000E-01 3.75000E-01
 -1       240 8.75000E-01 2.50000E-01 2.50000E-01
 -1       241 1.00000E+00 2.50000E-01 2.50000E-01
 -1       242 1.00000E+00 3.75000E-01 3.75000E-01
 -1       243 8.75000E-01 3.75000E-01 3.75000E-01
 -1       244 8.75000E-01 3.75000E-01 2.50000E-01
 -1       245 1.00000E+00 3.75000E-01 2.50000E-01
 -1       246 1.00000E+00 5.00000E-01 3.75000E-01
 -1       247 8.75000E-01 5.00000E-01 3.75000E-01
 -1       248 8.75000E-01 5.00000E-01 2.50000E-01
 -1       249 1.00000E+00 5.00000E-01 2.50000E-01
 -1       250 1.00000E+00 6.25000E-01 3.75000E-01
 -1       251 8.75000E-01 6.25000E-01 3.75000E-01
 -1       252 8.75000E-01 6.25000E-01 2.50000E-01
 -1       253 1.00000E+00 6.25000E-01 2.50000E-01
 -1       254 1.00000E+00 7.50000E-01 3.75000E-01
 -1       255 8.75000E-01 7.50000E-01 3.75000E-01
 -1       256 8.75000E-01 7.50000E-01 2.50000E-01
 -1       257 1.00000E+00 7.50000E-01 2.50000E-01
 -1       258 1.00000E+00 8.75000E-01 3.75000E-01
 -1       259 8.75000E-01 8.75000E-01 3.75000E-01
 -1       260 8.75000E-01 8.75000E-01 2.50000E-01
 -1       261 1.00000E+00 8.75000E-01 2.50000E-01
 -1       262 1.00000E+00 1.00000E+00 3.75000E-01
 -1       263 8.75000E-01 1.00000E+00 3.75000E-01
 -1       264 8.75000E-01 1.00000E+00 2.50000E-01
 -1       265 1.00000E+00 1.00000E+00 2.50000E-01
 -1       266 2.50000E-01 1.25000E-01 6.25000E-01
 -1       267 1.25000E-01 1.25000E-01 5.00000E-01
 -1       268 2.50000E-01 1.25000E-01 5.00000E-01
 -1       269 2.50000E-01 2.50000E-01 6.25000E-01
 -1       270 1.25000E-01 2.50000E-01 5.00000E-01
 -1       271 2.50000E-01 2.50000E-01 5.00000E-01
 -1       272 2.50000E-01 3.75000E-01 6.25000E-01
 -1       273 1.25000E-01 3.75000E-01 5.00000E-01
 -1       274 2.50000E-01 3.75000E-01 5.00000E-01
 -1       275 2.50000E-01 5.00000E-01 6.25000E-01
 -1       276 1.25000E-01 5.00000E-01 5.00000E-01
 -1       277 2.50000E-01 5.00000E-01 5.00000E-01
 -1       278 2.50000E-01 6.25000E-01 6.25000E-01
 -1       279 1.25000E-01 6.25000E-01 5.00000E-01
 -1       280 2.50000E-01 6.25000E-01 5.00000E-01
 -1       281 2.50000E-01 7.50000E-01 6.25000E-01
 -1       282 1.25000E-01 7.50000E-01 5.00000E-01
 -1       283 2.50000E-01 7.50000E-01 5.00000E-01
 -1       284 2.50000E-01 8.75000E-01 6.25000E-01
 -1       285 1.25000E-01 8.75000E-01 5.00000E-01
 -1       286 2.50000E-01 8.75000E-01 5.00000E-01
 -1       287 2.50000E-01 1.00000E+00 6.25000E-01
 -1       288 1.25000E-01 1.00000E+00 5.00000E-01
 -1       289 2.50000E-01 1.00000E+00 5.00000E-01
 -1       290 3.75000E-01 1.25000E-01 7.50000E-01
 -1       291 3.75000E-01 1.25000E-01 6.25000E-01
 -1       292 3.75000E-01 2.50000E-01 7.50000E-01
 -1       293 3.75000E-01 2.50000E-01 6.25000E-01
 -1       294 3.75000E-01 3.75000E-01 7.50000E-01
 -1       295 3.75000E-01 3.75000E-01 6.25000E-01
 -1       296 3.75000E-01 5.00000E-01 7.50000E-01
 -1       297 3.75000E-01 5.00000E-01 6.25000E-01
 -1       298 3.75000E-01 6.25000E-01 7.50000E-01
 -1       299 3.75000E-01 6.25000E-01 6.25000E-01
 -1       300 3.75000E-01 7.50000E-01 7.50000E-01
 -1       301 3.75000E-01 7.50000E-01 6.25000E-01
 -1       302 3.75000E-01 8.75000E-01 7.50000E-01
 -1       303 3.75000E-01 8.75000E-01 6.25000E-01
 -1       304 3.75000E-01 1.00000E+00 7.50000E-01
 -1       305 3.75000E-01 1.00000E+00 6.25000E-01
 -1       306 2.50000E-01 1.25000E-01 3.75000E-01
 -1       307 1.25000E-01 1.25000E-01 3.75000E-01
 -1       308 2.50000E-01 1.25000E-01 2.50000E-01
 -1       309 2.50000E-01 2.50000E-01 3.75000E-01
 -1       310 1.25000E-01 2.50000E-01 3.75000E-01
 -1       311 2.50000E-01 2.50000E-01 2.50000E-01
 -1       312 2.50000E-01 3.75000E-01 3.75000E-01
 -1       313 1.25000E-01 3.75000E-01 3.75000E-01
 -1       314 2.50000E-01 3.75000E-01 2.50000E-01
 -1       315 2.50000E-01 5.00000E-01 3.75000E-01
 -1       316 1.25000E-01 5.00000E-01 3.75000E-01
 -1       317 2.50000E-01 5.00000E-01 2.50000E-01
 -1       318 2.50000E-01 6.25000E-01 3.75000E-01
 -1       319 1.25000E-01 6.25000E-01 3.75000E-01
 -1       320 2.50000E-01 6.25000E-01 2.50000E-01
 -1       321 2.50000E-01 7.50000E-01 3.75000E-01
 -1       322 1.25000E-01 7.50000E-01 3.75000E-01
 -1       323 2.50000E-01 7.50000E-01 2.50000E-01
 -1       324 2.50000E-01 8.75000E-01 3.75000E-01
 -1       325 1.25000E-01 8.75000E-01 3.75000E-01
 -1       326 2.50000E-01 8.75000E-01 2.50000E-01
 -1       327 2.50000E-01 1.00000E+00 3.75000E-01
 -1       328 1.25000E-01 1.00000E+00 3.75000E-01
 -1       329 2.50000E-01 1.00000E+00 2.50000E-01
 -1       330 5.00000E-01 1.25000E-01 2.50000E-01
 -1       331 3.75000E-01 1.25000E-01 2.50000E-01
 -1       332 3.75000E-01 1.25000E-01 1.25000E-01
 -1       333 5.00000E-01 1.25000E-01 1.25000E-01
 -1       334 5.00000E-01 2.50000E-01 2.50000E-01
 -1       335 3.75000E-01 2.50000E-01 2.50000E-01
 -1       336 3.75000E-01 2.50000E-01 1.25000E-01
 -1       337 5.00000E-01 2.50000E-01 1.25000E-01
 -1       338 5.00000E-01 3.75000E-01 2.50000E-01
 -1       339 3.75000E-01 3.75000E-01 2.50000E-01
 -1       340 3.75000E-01 3.75000E-01 1.25000E-01
 -1       341 5.00000E-01 3.75000E-01 1.25000E-01
 -1       342 5.00000E-01 5.00000E-01 2.50000E-01
 -1       343 3.75000E-01 5.00000E-01 2.50000E-01
 -1       344 3.75000E-01 5.00000E-01 1.25000E-01
 -1       345 5.00000E-01 5.00000E-01 1.25000E-01
 -1       346 5.00000E-01 6.25000E-01 2.50000E-01
 -1       347 3.75000E-01 6.25000E-01 2.50000E-01
 -1       348 3.75000E-01 6.25000E-01 1.25000E-01
 -1       349 5.00000E-01 6.25000E-01 1.25000E-01
 -1       350 5.00000E-01 7.50000E-01 2.50000E-01
 -1       351 3.75000E-01 7.50000E-01 2.50000E-01
 -1       352 3.75000E-01 7.50000E-01 1.25000E-01
 -1       353 5.00000E-01 7.50000E-01 1.25000E-01
 -1       354 5.00000E-01 8.75000E-01 2.50000E-01
 -1       355 3.75000E-01 8.75000E-01 2.50000E-01
 -1       356 3.75000E-01 8.75000E-01 1.25000E-01
 -1       357 5.00000E-01 8.75000E-01 1.25000E-01
 -1       358 5.00000E-01 1.00000E+00 2.50000E-01
 -1       359 3.75000E-01 1.00000E+00 2.50000E-01
 -1       360 3.75000E-01 1.00000E+00 1.25000E-01
 -1       361 5.00000E-01 1.00000E+00 1.25000E-01
 -1       362 8.75000E-01 1.25000E-01 6.25000E-01
 -1       363 8.75000E-01 1.25000E-01 5.00000E-01
 -1       364 8.75000E-01 2.50000E-01 6.25000E-01
 -1       365 8.75000E-01 2.50000E-01 5.00000E-01
 -1       366 8.75000E-01 3.75000E-01 6.25000E-01
 -1       367 8.75000E-01 3.75000E-01 5.00000E-01
 -1       368 8.75000E-01 5.00000E-01 6.25000E-01
 -1       369 8.75000E-01 5.00000E-01 5.00000E-01
 -1       370 8.75000E-01 6.25000E-01 6.25000E-01
 -1       371 8.75000E-01 6.25000E-01 5.00000E-01
 -1       372 8.75000E-01 7.50000E-01 6.25000E-01
 -1       373 8.75000E-01 7.50000E-01 5.00000E-01
 -1       374 8.75000E-01 8.75000E-01 6.25000E-01
 -1       375 8.75000E-01 8.75000E-01 5.00000E-01
 -1       376 8.75000E-01 1.00000E+00 6.25000E-01
 -1       377 8.75000E-01 1.00000E+00 5.00000E-01
 -1       378 1.00000E+00 1.25000E-01 8.75000E-01
 -1       379 8.75000E-01 1.25000E-01 8.75000E-01
 -1       380 8.75000E-01 1.25000E-01 7.50000E-01
 -1       381 1.00000E+00 1.25000E-01 7.50000E-01
 -1       382 1.00000E+00 2.50000E-01 8.75000E-01
 -1       383 8.75000E-01 2.50000E-01 8.75000E-01
 -1       384 8.75000E-01 2.50000E-01 7.50000E-01
 -1       385 1.00000E+00 2.50000E-01 7.50000E-01
 -1       386 1.00000E+00 3.75000E-01 8.75000E-01
 -1       387 8.75000E-01 3.75000E-01 8.75000E-01
 -1       388 8.75000E-01 3.75000E-01 7.50000E-01
 -1       389 1.00000E+00 3.75000E-01 7.50000E-01
 -1       390 1.00000E+00 5.00000E-01 8.75000E-01
 -1       391 8.75000E-01 5.00000E-01 8.75000E-01
 -1       392 8.75000E-01 5.00000E-01 7.50000E-01
 -1       393 1.00000E+00 5.00000E-01 7.50000E-01
 -1       394 1.00000E+00 6.25000E-01 8.75000E-01
 -1       395 8.75000E-01 6.25000E-01 8.75000E-01
 -1       396 8.75000E-01 6.25000E-01 7.50000E-01
 -1       397 1.00000E+00 6.25000E-01 7.50000E-01
 -1       398 1.00000E+00 7.50000E-01 8.75000E-01
 -1       399 8.75000E-01 7.50000E-01 8.75000E-01
 -1       400 8.75000E-01 7.50000E-01 7.50000E-01
 -1       401 1.00000E+00 7.50000E-01 7.50000E-01
 -1       402 1.00000E+00 8.75000E-01 8.75000E-01
 -1       403 8.75000E-01 8.75000E-01 8.75000E-01
 -1       404 8.75000E-01 8.75000E-01 7.50000E-01
 -1       405 1.00000E+00 8.75000E-01 7.50000E-01
 -1       406 1.00000E+00 1.00000E+00 8.75000E-01
 -1       407 8.75000E-01 1.00000E+00 8.75000E-01
 -1       408 8.75000E-01 1.00000E+00 7.50000E-01
 -1       409 1.00000E+00 1.00000E+00 7.50000E-01
 -1       410 6.25000E-01 1.25000E-01 2.50000E-01
 -1       411 7.50000E-01 1.25000E-01 2.50000E-01
 -1       412 6.25000E-01 2.50000E-01 2.50000E-01
 -1       413 7.50000E-01 2.50000E-01 2.50000E-01
 -1       414 6.25000E-01 3.75000E-01 2.50000E-01
 -1       415 7.50000E-01 3.75000E-01 2.50000E-01
 -1       416 6.25000E-01 5.00000E-01 2.50000E-01
 -1       417 7.50000E-01 5.00000E-01 2.50000E-01
 -1       418 6.25000E-01 6.25000E-01 2.50000E-01
 -1       419 7.50000E-01 6.25000E-01 2.50000E-01
 -1       420 6.25000E-01 7.50000E-01 2.50000E-01
 -1       421 7.50000E-01 7.50000E-01 2.50000E-01
 -1       422 6.25000E-01 8.75000E-01 2.50000E-01
 -1       423 7.50000E-01 8.75000E-01 2.50000E-01
 -1       424 6.25000E-01 1.00000E+00 2.50000E-01
 -1       425 7.50000E-01 1.00000E+00 2.50000E-01
 -1       426 1.00000E+00 1.25000E-01 1.25000E-01
 -1       427 8.75000E-01 1.25000E-01 1.25000E-01
 -1       428 8.75000E-01 1.25000E-01 0.00000E+00
 -1       429 1.00000E+00 1.25000E-01 0.00000E+00
 -1       430 1.00000E+00 2.50000E-01 1.25000E-01
 -1       431 8.75000E-01 2.50000E-01 1.25000E-01
 -1       432 8.75000E-01 2.50000E-01 0.00000E+00
 -1       433 1.00000E+00 2.50000E-01 0.00000E+00
 -1       434 1.00000E+00 3.75000E-01 1.25000E-01
 -1       435 8.75000E-01 3.75000E-01 1.25000E-01
 -1       436 8.75000E-01 3.75000E-01 0.00000E+00
 -1       437 1.00000E+00 3.75000E-01 0.00000E+00
 -1       438 1.00000E+00 5.00000E-01 1.25000E-01
 -1       439 8.75000E-01 5.00000E-01 1.25000E-01
 -1       440 8.75000E-01 5.00000E-01 0.00000E+00
 -1       441 1.00000E+00 5.00000E-01 0.00000E+00
 -1       442 1.00000E+00 6.25000E-01 1.25000E-01
 -1       443 8.75000E-01 6.25000E-01 1.25000E-01
 -1       444 8.75000E-01 6.25000E-01 0.00000E+00
 -1       445 1.00000E+00 6.25000E-01 0.00000E+00
 -1       446 1.00000E+00 7.50000E-01 1.25000E-01
 -1       447 8.75000E-01 7.50000E-01 1.25000E-01
 -1       448 8.75000E-01 7.50000E-01 0.00000E+00
 -1       449 1.00000E+00 7.50000E-01 0.00000E+00
 -1       450 1.00000E+00 8.75000E-01 1.25000E-01
 -1       451 8.75000E-01 8.75000E-01 1.25000E-01
 -1       452 8.75000E-01 8.75000E-01 0.00000E+00
 -1       453 1.00000E+00 8.75000E-01 0.00000E+00
 -1       454 1.00000E+00 1.00000E+00 1.25000E-01
 -1       455 8.75000E-01 1.00000E+00 1.25000E-01
 -1       456 8.75000E-01 1.00000E+00 0.00000E+00
 -1       457 1.00000E+00 1.00000E+00 0.00000E+00
 -1       458 3.75000E-01 1.25000E-01 0.00000E+00
 -1       459 5.00000E-01 1.25000E-01 0.00000E+00
 -1       460 3.75000E-01 2.50000E-01 0.00000E+00
 -1       461 5.00000E-01 2.50000E-01 0.00000E+00
 -1       462 3.75000E-01 3.75000E-01 0.00000E+00
 -1       463 5.00000E-01 3.75000E-01 0.00000E+00
 -1       464 3.75000E-01 5.00000E-01 0.00000E+00
 -1       465 5.00000E-01 5.00000E-01 0.00000E+00
 -1       466 3.75000E-01 6.25000E-01 0.00000E+00
 -1       467 5.00000E-01 6.25000E-01 0.00000E+00
 -1       468 3.75000E-01 7.50000E-01 0.00000E+00
 -1       469 5.00000E-01 7.50000E-01 0.00000E+00
 -1       470 3.75000E-01 8.75000E-01 0.00000E+00
 -1       471 5.00000E-01 8.75000E-01 0.00000E+00
 -1       472 3.75000E-01 1.00000E+00 0.00000E+00
 -1       473 5.00000E-01 1.00000E+00 0.00000E+00
 -1       474 1.00000E+00 1.25000E-01 5.00000E-01
 -1       475 1.00000E+00 2.50000E-01 5.00000E-01
 -1       476 1.00000E+00 3.75000E-01 5.00000E-01
 -1       477 1.00000E+00 5.00000E-01 5.00000E-01
 -1       478 1.00000E+00 6.25000E-01 5.00000E-01
 -1       479 1.00000E+00 7.50000E-01 5.00000E-01
 -1       480 1.00000E+00 8.75000E-01 5.00000E-01
 -1       481 1.00000E+00 1.00000E+00 5.00000E-01
 -1       482 0.00000E+00 1.25000E-01 0.00000E+00
 -1       483 1.25000E-01 1.25000E-01 0.00000E+00
 -1       484 0.00000E+00 2.50000E-01 0.00000E+00
 -1       485 1.25000E-01 2.50000E-01 0.00000E+00
 -1       486 0.00000E+00 3.75000E-01 0.00000E+00
 -1       487 1.25000E-01 3.75000E-01 0.00000E+00
 -1       488 0.00000E+00 5.00000E-01 0.00000E+00
 -1       489 1.25000E-01 5.00000E-01 0.00000E+00
 -1       490 0.00000E+00 6.25000E-01 0.00000E+00
 -1       491 1.25000E-01 6.25000E-01 0.00000E+00
 -1       492 0.00000E+00 7.50000E-01 0.00000E+00
 -1       493 1.25000E-01 7.50000E-01 0.00000E+00
 -1       494 0.00000E+00 8.75000E-01 0.00000E+00
 -1       495 1.25000E-01 8.75000E-01 0.00000E+00
 -1       496 0.00000E+00 1.00000E+00 0.00000E+00
 -1       497 1.25000E-01 1.00000E+00 0.00000E+00
 -1       498 0.00000E+00 1.25000E-01 5.00000E-01
 -1       499 0.00000E+00 1.25000E-01 3.75000E-01
 -1       500 0.00000E+00 2.50000E-01 5.00000E-01
 -1       501 0.00000E+00 2.50000E-01 3.75000E-01
 -1       502 0.00000E+00 3.75000E-01 5.00000E-01
 -1       503 0.00000E+00 3.75000E-01 3.75000E-01
 -1       504 0.00000E+00 5.00000E-01 5.00000E-01
 -1       505 0.00000E+00 5.00000E-01 3.75000E-01
 -1       506 0.00000E+00 6.25000E-01 5.00000E-01
 -1       507 0.00000E+00 6.25000E-01 3.75000E-01
 -1       508 0.00000E+00 7.50000E-01 5.00000E-01
 -1       509 0.00000E+00 7.50000E-01 3.75000E-01
 -1       510 0.00000E+00 8.75000E-01 5.00000E-01
 -1       511 0.00000E+00 8.75000E-01 3.75000E-01
 -1       512 0.00000E+00 1.00000E+00 5.00000E-01
 -1       513 0.00000E+00 1.00000E+00 3.75000E-01
 -1       514 7.50000E-01 1.25000E-01 1.00000E+00
 -1       515 6.25000E-01 1.25000E-01 1.00000E+00
 -1       516 6.25000E-01 1.25000E-01 8.75000E-01
 -1       517 7.50000E-01 1.25000E-01 8.75000E-01
 -1       518 7.50000E-01 2.50000E-01 1.00000E+00
 -1       519 6.25000E-01 2.50000E-01 1.00000E+00
 -1       520 6.25000E-01 2.50000E-01 8.75000E-01
 -1       521 7.50000E-01 2.50000E-01 8.75000E-01
 -1       522 7.50000E-01 3.75000E-01 1.00000E+00
 -1       523 6.25000E-01 3.75000E-01 1.00000E+00
 -1       524 6.25000E-01 3.75000E-01 8.75000E-01
 -1       525 7.50000E-01 3.75000E-01 8.75000E-01
 -1       526 7.50000E-01 5.00000E-01 1.00000E+00
 -1       527 6.25000E-01 5.00000E-01 1.00000E+00
 -1       528 6.25000E-01 5.00000E-01 8.75000E-01
 -1       529 7.50000E-01 5.00000E-01 8.75000E-01
 -1       530 7.50000E-01 6.25000E-01 1.00000E+00
 -1       531 6.25000E-01 6.25000E-01 1.00000E+00
 -1       532 6.25000E-01 6.25000E-01 8.75000E-01
 -1       533 7.50000E-01 6.25000E-01 8.75000E-01
 -1       534 7.50000E-01 7.50000E-01 1.00000E+00
 -1       535 6.25000E-01 7.50000E-01 1.00000E+00
 -1       536 6.25000E-01 7.50000E-01 8.75000E-01
 -1       537 7.50000E-01 7.50000E-01 8.75000E-01
 -1       538 7.50000E-01 8.75000E-01 1.00000E+00
 -1       539 6.25000E-01 8.75000E-01 1.00000E+00
 -1       540 6.25000E-01 8.75000E-01 8.75000E-01
 -1       541 7.50000E-01 8.75000E-01 8.75000E-01
 -1       542 7.50000E-01 1.00000E+00 1.00000E+00
 -1       543 6.25000E-01 1.00000E+00 1.00000E+00
 -1       544 6.25000E-01 1.00000E+00 8.75000E-01
 -1       545 7.50000E-01 1.00000E+00 8.75000E-01
 -1       546 6.25000E-01 1.25000E-01 1.25000E-01
 -1       547 7.50000E-01 1.25000E-01 1.25000E-01
 -1       548 6.25000E-01 2.50000E-01 1.25000E-01
 -1       549 7.50000E-01 2.50000E-01 1.25000E-01
 -1       550 6.25000E-01 3.75000E-01 1.25000E-01
 -1       551 7.50000E-01 3.75000E-01 1.25000E-01
 -1       552 6.25000E-01 5.00000E-01 1.25000E-01
 -1       553 7.50000E-01 5.00000E-01 1.25000E-01
 -1       554 6.25000E-01 6.25000E-01 1.25000E-01
 -1       555 7.50000E-01 6.25000E-01 1.25000E-01
 -1       556 6.25000E-01 7.50000E-01 1.25000E-01
 -1       557 7.50000E-01 7.50000E-01 1.25000E-01
 -1       558 6.25000E-01 8.75000E-01 1.25000E-01
 -1       559 7.50000E-01 8.75000E-01 1.25000E-01
 -1       560 6.25000E-01 1.00000E+00 1.25000E-01
 -1       561 7.50000E-01 1.00000E+00 1.25000E-01
 -1       562 2.50000E-01 1.25000E-01 7.50000E-01
 -1       563 2.50000E-01 2.50000E-01 7.50000E-01
 -1       564 2.50000E-01 3.75000E-01 7.50000E-01
 -1       565 2.50000E-01 5.00000E-01 7.50000E-01
 -1       566 2.50000E-01 6.25000E-01 7.50000E-01
 -1       567 2.50000E-01 7.50000E-01 7.50000E-01
 -1       568 2.50000E-01 8.75000E-01 7.50000E-01
 -1       569 2.50000E-01 1.00000E+00 7.50000E-01
 -1       570 3.75000E-01 1.25000E-01 5.00000E-01
 -1       571 3.75000E-01 2.50000E-01 5.00000E-01
 -1       572 3.75000E-01 3.75000E-01 5.00000E-01
 -1       573 3.75000E-01 5.00000E-01 5.00000E-01
 -1       574 3.75000E-01 6.25000E-01 5.00000E-01
 -1       575 3.75000E-01 7.50000E-01 5.00000E-01
 -1       576 3.75000E-01 8.75000E-01 5.00000E-01
 -1       577 3.75000E-01 1.00000E+00 5.00000E-01
 -1       578 5.00000E-01 1.25000E-01 8.75000E-01
 -1       579 3.75000E-01 1.25000E-01 8.75000E-01
 -1       580 5.00000E-01 2.50000E-01 8.75000E-01
 -1       581 3.75000E-01 2.50000E-01 8.75000E-01
 -1       582 5.00000E-01 3.75000E-01 8.75000E-01