    1C
    1UUSER                                                              
    1UDATE              15.december.2018                                
    1UTIME              15:50:43                                        
    1UHOST                                                              
    1UPGM               CalculiX                                        
    1UVERSION           Version 2.15                             
    1UCOMPILETIME       Sa 15. Dez 14:32:01 CET 2018                    
    1UDIR                                                               
    1UDBN                                                               
    1UMAT    1STEEL                                                     
    2C                           416                                     1
 -1       205-5.00000E-03-2.50000E-01 5.00000E-03
 -1       206-5.00000E-03-2.50000E-01 0.00000E+00
 -1       207-5.00000E-03-2.50000E-01-5.00000E-03
 -1       208-5.00000E-03 2.50000E-01 5.00000E-03
 -1       209-5.00000E-03 2.50000E-01 0.00000E+00
 -1       210-5.00000E-03 2.50000E-01-5.00000E-03
 -1       211 5.00000E-03-2.50000E-01 5.00000E-03
 -1       212 5.00000E-03-2.50000E-01 0.00000E+00
 -1       213 5.00000E-03-2.50000E-01-5.00000E-03
 -1       214 5.00000E-03 2.50000E-01 5.00000E-03
 -1       215 5.00000E-03 2.50000E-01 0.00000E+00
 -1       216 5.00000E-03 2.50000E-01-5.00000E-03
 -1       217-5.00000E-03-2.35294E-01 5.00000E-03
 -1       218-5.00000E-03-2.35294E-01 0.00000E+00
 -1       219-5.00000E-03-2.35294E-01-5.00000E-03
 -1       220-5.00000E-03-2.20588E-01 5.00000E-03
 -1       221-5.00000E-03-2.20588E-01 0.00000E+00
 -1       222-5.00000E-03-2.20588E-01-5.00000E-03
 -1       223-5.00000E-03-2.05882E-01 5.00000E-03
 -1       224-5.00000E-03-2.05882E-01 0.00000E+00
 -1       225-5.00000E-03-2.05882E-01-5.00000E-03
 -1       226-5.00000E-03-1.91177E-01 5.00000E-03
 -1       227-5.00000E-03-1.91177E-01 0.00000E+00
 -1       228-5.00000E-03-1.91177E-01-5.00000E-03
 -1       229-5.00000E-03-1.76471E-01 5.00000E-03
 -1       230-5.00000E-03-1.76471E-01 0.00000E+00
 -1       231-5.00000E-03-1.76471E-01-5.00000E-03
 -1       232-5.00000E-03-1.61765E-01 5.00000E-03
 -1       233-5.00000E-03-1.61765E-01 0.00000E+00
 -1       234-5.00000E-03-1.61765E-01-5.00000E-03
 -1       235-5.00000E-03-1.47059E-01 5.00000E-03
 -1       236-5.00000E-03-1.47059E-01 0.00000E+00
 -1       237-5.00000E-03-1.47059E-01-5.00000E-03
 -1       238-5.00000E-03-1.32353E-01 5.00000E-03
 -1       239-5.00000E-03-1.32353E-01 0.00000E+00
 -1       240-5.00000E-03-1.32353E-01-5.00000E-03
 -1       241-5.00000E-03-1.17647E-01 5.00000E-03
 -1       242-5.00000E-03-1.17647E-01 0.00000E+00
 -1       243-5.00000E-03-1.17647E-01-5.00000E-03
 -1       244-5.00000E-03-1.02941E-01 5.00000E-03
 -1       245-5.00000E-03-1.02941E-01 0.00000E+00
 -1       246-5.00000E-03-1.02941E-01-5.00000E-03
 -1       247-5.00000E-03-8.82353E-02 5.00000E-03
 -1       248-5.00000E-03-8.82353E-02 0.00000E+00
 -1       249-5.00000E-03-8.82353E-02-5.00000E-03
 -1       250-5.00000E-03-7.35294E-02 5.00000E-03
 -1       251-5.00000E-03-7.35294E-02 0.00000E+00
 -1       252-5.00000E-03-7.35294E-02-5.00000E-03
 -1       253-5.00000E-03-5.88235E-02 5.00000E-03
 -1       254-5.00000E-03-5.88235E-02 0.00000E+00
 -1       255-5.00000E-03-5.88235E-02-5.00000E-03
 -1       256-5.00000E-03-4.41176E-02 5.00000E-03
 -1       257-5.00000E-03-4.41176E-02 0.00000E+00
 -1       258-5.00000E-03-4.41176E-02-5.00000E-03
 -1       259-5.00000E-03-2.94118E-02 5.00000E-03
 -1       260-5.00000E-03-2.94118E-02 0.00000E+00
 -1       261-5.00000E-03-2.94118E-02-5.00000E-03
 -1       262-5.00000E-03-1.47059E-02 5.00000E-03
 -1       263-5.00000E-03-1.47059E-02 0.00000E+00
 -1       264-5.00000E-03-1.47059E-02-5.00000E-03
 -1       265-5.00000E-03 4.51028E-17 5.00000E-03
 -1       266-5.00000E-03 4.51028E-17 0.00000E+00
 -1       267-5.00000E-03 4.51028E-17-5.00000E-03
 -1       268-5.00000E-03 1.47059E-02 5.00000E-03
 -1       269-5.00000E-03 1.47059E-02 0.00000E+00
 -1       270-5.00000E-03 1.47059E-02-5.00000E-03
 -1       271-5.00000E-03 2.94118E-02 5.00000E-03
 -1       272-5.00000E-03 2.94118E-02 0.00000E+00
 -1       273-5.00000E-03 2.94118E-02-5.00000E-03
 -1       274-5.00000E-03 4.41176E-02 5.00000E-03
 -1       275-5.00000E-03 4.41176E-02 0.00000E+00
 -1       276-5.00000E-03 4.41176E-02-5.00000E-03
 -1       277-5.00000E-03 5.88235E-02 5.00000E-03
 -1       278-5.00000E-03 5.88235E-02 0.00000E+00
 -1       279-5.00000E-03 5.88235E-02-5.00000E-03
 -1       280-5.00000E-03 7.35294E-02 5.00000E-03
 -1       281-5.00000E-03 7.35294E-02 0.00000E+00
 -1       282-5.00000E-03 7.35294E-02-5.00000E-03
 -1       283-5.00000E-03 8.82353E-02 5.00000E-03
 -1       284-5.00000E-03 8.82353E-02 0.00000E+00
 -1       285-5.00000E-03 8.82353E-02-5.00000E-03
 -1       286-5.00000E-03 1.02941E-01 5.00000E-03
 -1       287-5.00000E-03 1.02941E-01 0.00000E+00
 -1       288-5.00000E-03 1.02941E-01-5.00000E-03
 -1       289-5.00000E-03 1.17647E-01 5.00000E-03
 -1       290-5.00000E-03 1.17647E-01 0.00000E+00
 -1       291-5.00000E-03 1.17647E-01-5.00000E-03
 -1       292-5.00000E-03 1.32353E-01 5.00000E-03
 -1       293-5.00000E-03 1.32353E-01 0.00000E+00
 -1       294-5.00000E-03 1.32353E-01-5.00000E-03
 -1       295-5.00000E-03 1.47059E-01 5.00000E-03
 -1       296-5.00000E-03 1.47059E-01 0.00000E+00
 -1       297-5.00000E-03 1.47059E-01-5.00000E-03
 -1       298-5.00000E-03 1.61765E-01 5.00000E-03
 -1       299-5.00000E-03 1.61765E-01 0.00000E+00
 -1       300-5.00000E-03 1.61765E-01-5.00000E-03
 -1       301-5.00000E-03 1.76471E-01 5.00000E-03
 -1       302-5.00000E-03 1.76471E-01 0.00000E+00
 -1       303-5.00000E-03 1.76471E-01-5.00000E-03
 -1       304-5.00000E-03 1.91177E-01 5.00000E-03
 -1       305-5.00000E-03 1.91177E-01 0.00000E+00
 -1       306-5.00000E-03 1.91177E-01-5.00000E-03
 -1       307-5.00000E-03 2.05882E-01 5.00000E-03
 -1       308-5.00000E-03 2.05882E-01 0.00000E+00
 -1       309-5.00000E-03 2.05882E-01-5.00000E-03
 -1       310-5.00000E-03 2.20588E-01 5.00000E-03
 -1       311-5.00000E-03 2.20588E-01 0.00000E+00
 -1       312-5.00000E-03 2.20588E-01-5.00000E-03
 -1       313-5.00000E-03 2.35294E-01 5.00000E-03
 -1       314-5.00000E-03 2.35294E-01 0.00000E+00
 -1       315-5.00000E-03 2.35294E-01-5.00000E-03
 -1       316 5.00000E-03-2.35294E-01 5.00000E-03
 -1       317 5.00000E-03-2.35294E-01 0.00000E+00
 -1       318 5.00000E-03-2.35294E-01-5.00000E-03
 -1       319 5.00000E-03-2.20588E-01 5.00000E-03
 -1       320 5.00000E-03-2.20588E-01 0.00000E+00
 -1       321 5.00000E-03-2.20588E-01-5.00000E-03
 -1       322 5.00000E-03-2.05882E-01 5.00000E-03
 -1       323 5.00000E-03-2.05882E-01 0.00000E+00
 -1       324 5.00000E-03-2.05882E-01-5.00000E-03
 -1       325 5.00000E-03-1.91177E-01 5.00000E-03
 -1       326 5.00000E-03-1.91177E-01 0.00000E+00
 -1       327 5.00000E-03-1.91177E-01-5.00000E-03
 -1       328 5.00000E-03-1.76471E-01 5.00000E-03
 -1       329 5.00000E-03-1.76471E-01 0.00000E+00
 -1       330 5.00000E-03-1.76471E-01-5.00000E-03
 -1       331 5.00000E-03-1.61765E-01 5.00000E-03
 -1       332 5.00000E-03-1.61765E-01 0.00000E+00
 -1       333 5.00000E-03-1.61765E-01-5.00000E-03
 -1       334 5.00000E-03-1.47059E-01 5.00000E-03
 -1       335 5.00000E-03-1.47059E-01 0.00000E+00
 -1       336 5.00000E-03-1.47059E-01-5.00000E-03
 -1       337 5.00000E-03-1.32353E-01 5.00000E-03
 -1       338 5.00000E-03-1.32353E-01 0.00000E+00
 -1       339 5.00000E-03-1.32353E-01-5.00000E-03
 -1       340 5.00000E-03-1.17647E-01 5.00000E-03
 -1       341 5.00000E-03-1.17647E-01 0.00000E+00
 -1       342 5.00000E-03-1.17647E-01-5.00000E-03
 -1       343 5.00000E-03-1.02941E-01 5.00000E-03
 -1       344 5.00000E-03-1.02941E-01 0.00000E+00
 -1       345 5.00000E-03-1.02941E-01-5.00000E-03
 -1       346 5.00000E-03-8.82353E-02 5.00000E-03
 -1       347 5.00000E-03-8.82353E-02 0.00000E+00
 -1       348 5.00000E-03-8.82353E-02-5.00000E-03
 -1       349 5.00000E-03-7.35294E-02 5.00000E-03
 -1       350 5.00000E-03-7.35294E-02 0.00000E+00
 -1       351 5.00000E-03-7.35294E-02-5.00000E-03
 -1       352 5.00000E-03-5.88235E-02 5.00000E-03
 -1       353 5.00000E-03-5.88235E-02 0.00000E+00
 -1       354 5.00000E-03-5.88235E-02-5.00000E-03
 -1       355 5.00000E-03-4.41176E-02 5.00000E-03
 -1       356 5.00000E-03-4.41176E-02 0.00000E+00
 -1       357 5.00000E-03-4.41176E-02-5.00000E-03
 -1       358 5.00000E-03-2.94118E-02 5.00000E-03
 -1       359 5.00000E-03-2.94118E-02 0.00000E+00
 -1       360 5.00000E-03-2.94118E-02-5.00000E-03
 -1       361 5.00000E-03-1.47059E-02 5.00000E-03
 -1       362 5.00000E-03-1.47059E-02 0.00000E+00
 -1       363 5.00000E-03-1.47059E-02-5.00000E-03
 -1       364 5.00000E-03 4.51028E-17 5.00000E-03
 -1       365 5.00000E-03 4.51028E-17 0.00000E+00
 -1       366 5.00000E-03 4.51028E-17-5.00000E-03
 -1       367 5.00000E-03 1.47059E-02 5.00000E-03
 -1       368 5.00000E-03 1.47059E-02 0.00000E+00
 -1       369 5.00000E-03 1.47059E-02-5.00000E-03
 -1       370 5.00000E-03 2.94118E-02 5.00000E-03
 -1       371 5.00000E-03 2.94118E-02 0.00000E+00
 -1       372 5.00000E-03 2.94118E-02-5.00000E-03
 -1       373 5.00000E-03 4.41176E-02 5.00000E-03
 -1       374 5.00000E-03 4.41176E-02 0.00000E+00
 -1       375 5.00000E-03 4.41176E-02-5.00000E-03
 -1       376 5.00000E-03 5.88235E-02 5.00000E-03
 -1       377 5.00000E-03 5.88235E-02 0.00000E+00
 -1       378 5.00000E-03 5.88235E-02-5.00000E-03
 -1       379 5.00000E-03 7.35294E-02 5.00000E-03
 -1       380 5.00000E-03 7.35294E-02 0.00000E+00
 -1       381 5.00000E-03 7.35294E-02-5.00000E-03
 -1       382 5.00000E-03 8.82353E-02 5.00000E-03
 -1       383 5.00000E-03 8.82353E-02 0.00000E+00
 -1       384 5.00000E-03 8.82353E-02-5.00000E-03
 -1       385 5.00000E-03 1.02941E-01 5.00000E-03
 -1       386 5.00000E-03 1.02941E-01 0.00000E+00
 -1       387 5.00000E-03 1.02941E-01-5.00000E-03
 -1       388 5.00000E-03 1.17647E-01 5.00000E-03
 -1       389 5.00000E-03 1.17647E-01 0.00000E+00
 -1       390 5.00000E-03 1.17647E-01-5.00000E-03
 -1       391 5.00000E-03 1.32353E-01 5.00000E-03
 -1       392 5.00000E-03 1.32353E-01 0.00000E+00
 -1       393 5.00000E-03 1.32353E-01-5.00000E-03
 -1       394 5.00000E-03 1.47059E-01 5.00000E-03
 -1       395 5.00000E-03 1.47059E-01 0.00000E+00
 -1       396 5.00000E-03 1.47059E-01-5.00000E-03
 -1       397 5.00000E-03 1.61765E-01 5.00000E-03
 -1       398 5.00000E-03 1.61765E-01 0.00000E+00
 -1       399 5.00000E-03 1.61765E-01-5.00000E-03
 -1       400 5.00000E-03 1.76471E-01 5.00000E-03
 -1       401 5.00000E-03 1.76471E-01 0.00000E+00
 -1       402 5.00000E-03 1.76471E-01-5.00000E-03
 -1       403 5.00000E-03 1.91177E-01 5.00000E-03
 -1       404 5.00000E-03 1.91177E-01 0.00000E+00
 -1       405 5.00000E-03 1.91177E-01-5.00000E-03
 -1       406 5.00000E-03 2.05882E-01 5.00000E-03
 -1       407 5.00000E-03 2.05882E-01 0.00000E+00
 -1       408 5.00000E-03 2.05882E-01-5.00000E-03
 -1       409 5.00000E-03 2.20588E-01 5.00000E-03
 -1       410 5.00000E-03 2.20588E-01 0.00000E+00
 -1       411 5.00000E-03 2.20588E-01-5.00000E-03
 -1       412 5.00000E-03 2.35294E-01 5.00000E-03
 -1       413 5.00000E-03 2.35294E-01 0.00000E+00
 -1       414 5.00000E-03 2.35294E-01-5.00000E-03
 -1       415-5.00000E-03-2.42647E-01 5.00000E-03
 -1       417-5.00000E-03-2.42647E-01-5.00000E-03
 -1       418-5.00000E-03-2.27941E-01 5.00000E-03
 -1       420-5.00000E-03-2.27941E-01-5.00000E-03
 -1       421-5.00000E-03-2.13235E-01 5.00000E-03
 -1       423-5.00000E-03-2.13235E-01-5.00000E-03
 -1       424-5.00000E-03-1.98529E-01 5.00000E-03
 -1       426-5.00000E-03-1.98529E-01-5.00000E-03
 -1       427-5.00000E-03-1.83823E-01 5.00000E-03
 -1       429-5.00000E-03-1.83823E-01-5.00000E-03
 -1       430-5.00000E-03-1.69118E-01 5.00000E-03
 -1       432-5.00000E-03-1.69118E-01-5.00000E-03
 -1       433-5.00000E-03-1.54412E-01 5.00000E-03
 -1       435-5.00000E-03-1.54412E-01-5.00000E-03
 -1       436-5.00000E-03-1.39706E-01 5.00000E-03
 -1       438-5.00000E-03-1.39706E-01-5.00000E-03
 -1       439-5.00000E-03-1.25000E-01 5.00000E-03
 -1       441-5.00000E-03-1.25000E-01-5.00000E-03
 -1       442-5.00000E-03-1.10294E-01 5.00000E-03
 -1       444-5.00000E-03-1.10294E-01-5.00000E-03
 -1       445-5.00000E-03-9.55882E-02 5.00000E-03
 -1       447-5.00000E-03-9.55882E-02-5.00000E-03
 -1       448-5.00000E-03-8.08823E-02 5.00000E-03
 -1       450-5.00000E-03-8.08823E-02-5.00000E-03
 -1       451-5.00000E-03-6.61765E-02 5.00000E-03
 -1       453-5.00000E-03-6.61765E-02-5.00000E-03
 -1       454-5.00000E-03-5.14706E-02 5.00000E-03
 -1       456-5.00000E-03-5.14706E-02-5.00000E-03
 -1       457-5.00000E-03-3.67647E-02 5.00000E-03
 -1       459-5.00000E-03-3.67647E-02-5.00000E-03
 -1       460-5.00000E-03-2.20588E-02 5.00000E-03
 -1       462-5.00000E-03-2.20588E-02-5.00000E-03
 -1       463-5.00000E-03-7.35294E-03 5.00000E-03
 -1       465-5.00000E-03-7.35294E-03-5.00000E-03
 -1       466-5.00000E-03 7.35294E-03 5.00000E-03
 -1       468-5.00000E-03 7.35294E-03-5.00000E-03
 -1       469-5.00000E-03 2.20588E-02 5.00000E-03
 -1       471-5.00000E-03 2.20588E-02-5.00000E-03
 -1       472-5.00000E-03 3.67647E-02 5.00000E-03
 -1       474-5.00000E-03 3.67647E-02-5.00000E-03
 -1       475-5.00000E-03 5.14706E-02 5.00000E-03
 -1       477-5.00000E-03 5.14706E-02-5.00000E-03
 -1       478-5.00000E-03 6.61765E-02 5.00000E-03
 -1       480-5.00000E-03 6.61765E-02-5.00000E-03
 -1       481-5.00000E-03 8.08823E-02 5.00000E-03
 -1       483-5.00000E-03 8.08823E-02-5.00000E-03
 -1       484-5.00000E-03 9.55882E-02 5.00000E-03
 -1       486-5.00000E-03 9.55882E-02-5.00000E-03
 -1       487-5.00000E-03 1.10294E-01 5.00000E-03
 -1       489-5.00000E-03 1.10294E-01-5.00000E-03
 -1       490-5.00000E-03 1.25000E-01 5.00000E-03
 -1       492-5.00000E-03 1.25000E-01-5.00000E-03
 -1       493-5.00000E-03 1.39706E-01 5.00000E-03
 -1       495-5.00000E-03 1.39706E-01-5.00000E-03
 -1       496-5.00000E-03 1.54412E-01 5.00000E-03
 -1       498-5.00000E-03 1.54412E-01-5.00000E-03
 -1       499-5.00000E-03 1.69118E-01 5.00000E-03
 -1       501-5.00000E-03 1.69118E-01-5.00000E-03
 -1       502-5.00000E-03 1.83823E-01 5.00000E-03
 -1       504-5.00000E-03 1.83823E-01-5.00000E-03
 -1       505-5.00000E-03 1.98529E-01 5.00000E-03
 -1       507-5.00000E-03 1.98529E-01-5.00000E-03
 -1       508-5.00000E-03 2.13235E-01 5.00000E-03
 -1       510-5.00000E-03 2.13235E-01-5.00000E-03
 -1       511-5.00000E-03 2.27941E-01 5.00000E-03
 -1       513-5.00000E-03 2.27941E-01-5.00000E-03
 -1       514-5.00000E-03 2.42647E-01 5.00000E-03
 -1       516-5.00000E-03 2.42647E-01-5.00000E-03
 -1       517 0.00000E+00-2.50000E-01 5.00000E-03
 -1       519 0.00000E+00-2.50000E-01-5.00000E-03
 -1       520 5.00000E-03-2.42647E-01 5.00000E-03
 -1       522 5.00000E-03-2.42647E-01-5.00000E-03
 -1       523 5.00000E-03-2.27941E-01 5.00000E-03
 -1       525 5.00000E-03-2.27941E-01-5.00000E-03
 -1       526 5.00000E-03-2.13235E-01 5.00000E-03
 -1       528 5.00000E-03-2.13235E-01-5.00000E-03
 -1       529 5.00000E-03-1.98529E-01 5.00000E-03
 -1       531 5.00000E-03-1.98529E-01-5.00000E-03
 -1       532 5.00000E-03-1.83823E-01 5.00000E-03
 -1       534 5.00000E-03-1.83823E-01-5.00000E-03
 -1       535 5.00000E-03-1.69118E-01 5.00000E-03
 -1       537 5.00000E-03-1.69118E-01-5.00000E-03
 -1       538 5.00000E-03-1.54412E-01 5.00000E-03
 -1       540 5.00000E-03-1.54412E-01-5.00000E-03
 -1       541 5.00000E-03-1.39706E-01 5.00000E-03
 -1       543 5.00000E-03-1.39706E-01-5.00000E-03
 -1       544 5.00000E-03-1.25000E-01 5.00000E-03
 -1       546 5.00000E-03-1.25000E-01-5.00000E-03
 -1       547 5.00000E-03-1.10294E-01 5.00000E-03
 -1       549 5.00000E-03-1.10294E-01-5.00000E-03
 -1       550 5.00000E-03-9.55882E-02 5.00000E-03
 -1       552 5.00000E-03-9.55882E-02-5.00000E-03
 -1       553 5.00000E-03-8.08823E-02 5.00000E-03
 -1       555 5.00000E-03-8.08823E-02-5.00000E-03
 -1       556 5.00000E-03-6.61765E-02 5.00000E-03
 -1       558 5.00000E-03-6.61765E-02-5.00000E-03
 -1       559 5.00000E-03-5.14706E-02 5.00000E-03
 -1       561 5.00000E-03-5.14706E-02-5.00000E-03
 -1       562 5.00000E-03-3.67647E-02 5.00000E-03
 -1       564 5.00000E-03-3.67647E-02-5.00000E-03
 -1       565 5.00000E-03-2.20588E-02 5.00000E-03
 -1       567 5.00000E-03-2.20588E-02-5.00000E-03
 -1       568 5.00000E-03-7.35294E-03 5.00000E-03
 -1       570 5.00000E-03-7.35294E-03-5.00000E-03
 -1       571 5.00000E-03 7.35294E-03 5.00000E-03
 -1       573 5.00000E-03 7.35294E-03-5.00000E-03
 -1       574 5.00000E-03 2.20588E-02 5.00000E-03
 -1       576 5.00000E-03 2.20588E-02-5.00000E-03
 -1       577 5.00000E-03 3.67647E-02 5.00000E-03
 -1       579 5.00000E-03 3.67647E-02-5.00000E-03
 -1       580 5.00000E-03 5.14706E-02 5.00000E-03
 -1       582 5.00000E-03 5.14706E-02-5.00000E-03
 -1       583 5.00000E-03 6.61765E-02 5.00000E-03
 -1       585 5.00000E-03 6.61765E-02-5.00000E-03
 -1       586 5.00000E-03 8.08823E-02 5.00000E-03
 -1       588 5.00000E-03 8.08823E-02-5.00000E-03
 -1       589 5.00000E-03 9.55882E-02 5.00000E-03
 -1       591 5.00000E-03 9.55882E-02-5.00000E-03
 -1       592 5.00000E-03 1.10294E-01 5.00000E-03
 -1       594 5.00000E-03 1.10294E-01-5.00000E-03
 -1       595 5.00000E-03 1.25000E-01 5.00000E-03
 -1       597 5.00000E-03 1.25000E-01-5.00000E-03
 -1       598 5.00000E-03 1.39706E-01 5.00000E-03
 -1       600 5.00000E-03 1.39706E-01-5.00000E-03
 -1       601 5.00000E-03 1.54412E-01 5.00000E-03
 -1       603 5.00000E-03 1.54412E-01-5.00000E-03
 -1       604 5.00000E-03 1.69118E-01 5.00000E-03
 -1       606 5.00000E-03 1.69118E-01-5.00000E-03
 -1       607 5.00000E-03 1.83823E-01 5.00000E-03
 -1       609 5.00000E-03 1.83823E-01-5.00000E-03
 -1       610 5.00000E-03 1.98529E-01 5.00000E-03
 -1       612 5.00000E-03 1.98529E-01-5.00000E-03
 -1       613 5.00000E-03 2.13235E-01 5.00000E-03
 -1       615 5.00000E-03 2.13235E-01-5.00000E-03
 -1       616 5.00000E-03 2.27941E-01 5.00000E-03
 -1       618 5.00000E-03 2.27941E-01-5.00000E-03
 -1       619 5.00000E-03 2.42647E-01 5.00000E-03
 -1       621 5.00000E-03 2.42647E-01-5.00000E-03
 -1       622 0.00000E+00 2.50000E-01 5.00000E-03
 -1       624 0.00000E+00 2.50000E-01-5.00000E-03
 -1       625 0.00000E+00 2.35294E-01 5.00000E-03
 -1       627 0.00000E+00 2.35294E-01-5.00000E-03
 -1       628 0.00000E+00 2.20588E-01 5.00000E-03
 -1       630 0.00000E+00 2.20588E-01-5.00000E-03
 -1       631 0.00000E+00 2.05882E-01 5.00000E-03
 -1       633 0.00000E+00 2.05882E-01-5.00000E-03
 -1       634 0.00000E+00 1.91177E-01 5.00000E-03
 -1       636 0.00000E+00 1.91177E-01-5.00000E-03
 -1       637 0.00000E+00 1.76471E-01 5.00000E-03
 -1       639 0.00000E+00 1.76471E-01-5.00000E-03
 -1       640 0.00000E+00 1.61765E-01 5.00000E-03
 -1       642 0.00000E+00 1.61765E-01-5.00000E-03
 -1       643 0.00000E+00 1.47059E-01 5.00000E-03
 -1       645 0.00000E+00 1.47059E-01-5.00000E-03
 -1       646 0.00000E+00 1.32353E-01 5.00000E-03
 -1       648 0.00000E+00 1.32353E-01-5.00000E-03
 -1       649 0.00000E+00 1.17647E-01 5.00000E-03
 -1       651 0.00000E+00 1.17647E-01-5.00000E-03
 -1       652 0.00000E+00 1.02941E-01 5.00000E-03
 -1       654 0.00000E+00 1.02941E-01-5.00000E-03
 -1       655 0.00000E+00 8.82353E-02 5.00000E-03
 -1       657 0.00000E+00 8.82353E-02-5.00000E-03
 -1       658 0.00000E+00 7.35294E-02 5.00000E-03
 -1       660 0.00000E+00 7.35294E-02-5.00000E-03
 -1       661 0.00000E+00 5.88235E-02 5.00000E-03
 -1       663 0.00000E+00 5.88235E-02-5.00000E-03
 -1       664 0.00000E+00 4.41176E-02 5.00000E-03
 -1       666 0.00000E+00 4.41176E-02-5.00000E-03
 -1       667 0.00000E+00 2.94118E-02 5.00000E-03
 -1       669 0.00000E+00 2.94118E-02-5.00000E-03
 -1       670 0.00000E+00 1.47059E-02 5.00000E-03
 -1       672 0.00000E+00 1.47059E-02-5.00000E-03
 -1       673 0.00000E+00 4.51028E-17 5.00000E-03
 -1       675 0.00000E+00 4.51028E-17-5.00000E-03
 -1       676 0.00000E+00-1.47059E-02 5.00000E-03
 -1       678 0.00000E+00-1.47059E-02-5.00000E-03
 -1       679 0.00000E+00-2.94118E-02 5.00000E-03
 -1       681 0.00000E+00-2.94118E-02-5.00000E-03
 -1       682 0.00000E+00-4.41176E-02 5.00000E-03
 -1       684 0.00000E+00-4.41176E-02-5.00000E-03
 -1       685 0.00000E+00-5.88235E-02 5.00000E-03
 -1       687 0.00000E+00-5.88235E-02-5.00000E-03
 -1       688 0.00000E+00-7.35294E-02 5.00000E-03
 -1       690 0.00000E+00-7.35294E-02-5.00000E-03
 -1       691 0.00000E+00-8.82353E-02 5.00000E-03
 -1       693 0.00000E+00-8.82353E-02-5.00000E-03
 -1       694 0.00000E+00-1.02941E-01 5.00000E-03
 -1       696 0.00000E+00-1.02941E-01-5.00000E-03
 -1       697 0.00000E+00-1.17647E-01 5.00000E-03
 -1       699 0.00000E+00-1.17647E-01-5.00000E-03
 -1       700 0.00000E+00-1.32353E-01 5.00000E-03
 -1       702 0.00000E+00-1.32353E-01-5.00000E-03
 -1       703 0.00000E+00-1.47059E-01 5.00000E-03
 -1       705 0.00000E+00-1.47059E-01-5.00000E-03
 -1       706 0.00000E+00-1.61765E-01 5.00000E-03
 -1       708 0.00000E+00-1.61765E-01-5.00000E-03
 -1       709 0.00000E+00-1.76471E-01 5.00000E-03
 -1       711 0.00000E+00-1.76471E-01-5.00000E-03
 -1       712 0.00000E+00-1.91177E-01 5.00000E-03
 -1       714 0.00000E+00-1.91177E-01-5.00000E-03
 -1       715 0.00000E+00-2.05882E-01 5.00000E-03
 -1       717 0.00000E+00-2.05882E-01-5.00000E-03
 -1       718 0.00000E+00-2.20588E-01 5.00000E-03
 -1       720 0.00000E+00-2.20588E-01-5.00000E-03
 -1       721 0.00000E+00-2.35294E-01 5.00000E-03
 -1       723 0.00000E+00-2.35294E-01-5.00000E-03
 -3
    3C                            34                                     1
 -1        71    4    0    1
 -2       208       214       412       313       210       216       414       315       622       619
 -2       625       514       209       215       413       314       624       621       627       516
 -1        72    4    0    1
 -2       313       412       409       310       315       414       411       312       625       616
 -2       628       511       314       413       410       311       627       618       630       513
 -1        73    4    0    1
 -2       310       409       406       307       312       411       408       309       628       613
 -2       631       508       311       410       407       308       630       615       633       510
 -1        74    4    0    1
 -2       307       406       403       304       309       408       405       306       631       610
 -2       634       505       308       407       404       305       633       612       636       507
 -1        75    4    0    1
 -2       304       403       400       301       306       405       402       303       634       607
 -2       637       502       305       404       401       302       636       609       639       504
 -1        76    4    0    1
 -2       301       400       397       298       303       402       399       300       637       604
 -2       640       499       302       401       398       299       639       606       642       501
 -1        77    4    0    1
 -2       298       397       394       295       300       399       396       297       640       601
 -2       643       496       299       398       395       296       642       603       645       498
 -1        78    4    0    1
 -2       295       394       391       292       297       396       393       294       643       598
 -2       646       493       296       395       392       293       645       600       648       495
 -1        79    4    0    1
 -2       292       391       388       289       294       393       390       291       646       595
 -2       649       490       293       392       389       290       648       597       651       492
 -1        80    4    0    1
 -2       289       388       385       286       291       390       387       288       649       592
 -2       652       487       290       389       386       287       651       594       654       489
 -1        81    4    0    1
 -2       286       385       382       283       288       387       384       285       652       589
 -2       655       484       287       386       383       284       654       591       657       486
 -1        82    4    0    1
 -2       283       382       379       280       285       384       381       282       655       586
 -2       658       481       284       383       380       281       657       588       660       483
 -1        83    4    0    1
 -2       280       379       376       277       282       381       378       279       658       583
 -2       661       478       281       380       377       278       660       585       663       480
 -1        84    4    0    1
 -2       277       376       373       274       279       378       375       276       661       580
 -2       664       475       278       377       374       275       663       582       666       477
 -1        85    4    0    1
 -2       274       373       370       271       276       375       372       273       664       577
 -2       667       472       275       374       371       272       666       579       669       474
 -1        86    4    0    1
 -2       271       370       367       268       273       372       369       270       667       574
 -2       670       469       272       371       368       269       669       576       672       471
 -1        87    4    0    1
 -2       268       367       364       265       270       369       366       267       670       571
 -2       673       466       269       368       365       266       672       573       675       468
 -1        88    4    0    1
 -2       265       364       361       262       267       366       363       264       673       568
 -2       676       463       266       365       362       263       675       570       678       465
 -1        89    4    0    1
 -2       262       361       358       259       264       363       360       261       676       565
 -2       679       460       263       362       359       260       678       567       681       462
 -1        90    4    0    1
 -2       259       358       355       256       261       360       357       258       679       562
 -2       682       457       260       359       356       257       681       564       684       459
 -1        91    4    0    1
 -2       256       355       352       253       258       357       354       255       682       559
 -2       685       454       257       356       353       254       684       561       687       456
 -1        92    4    0    1
 -2       253       352       349       250       255       354       351       252       685       556
 -2       688       451       254       353       350       251       687       558       690       453
 -1        93    4    0    1
 -2       250       349       346       247       252       351       348       249       688       553
 -2       691       448       251       350       347       248       690       555       693       450
 -1        94    4    0    1
 -2       247       346       343       244       249       348       345       246       691       550
 -2       694       445       248       347       344       245       693       552       696       447
 -1        95    4    0    1
 -2       244       343       340       241       246       345       342       243       694       547
 -2       697       442       245       344       341       242       696       549       699       444
 -1        96    4    0    1
 -2       241       340       337       238       243       342       339       240       697       544
 -2       700       439       242       341       338       239       699       546       702       441
 -1        97    4    0    1
 -2       238       337       334       235       240       339       336       237       700       541
 -2       703       436       239       338       335       236       702       543       705       438
 -1        98    4    0    1
 -2       235       334       331       232       237       336       333       234       703       538
 -2       706       433       236       335       332       233       705       540       708       435
 -1        99    4    0    1
 -2       232       331       328       229       234       333       330       231       706       535
 -2       709       430       233       332       329       230       708       537       711       432
 -1       100    4    0    1
 -2       229       328       325       226       231       330       327       228       709       532
 -2       712       427       230       329       326       227       711       534       714       429
 -1       101    4    0    1
 -2       226       325       322       223       228       327       324       225       712       529
 -2       715       424       227       326       323       224       714       531       717       426
 -1       102    4    0    1
 -2       223       322       319       220       225       324       321       222       715       526
 -2       718       421       224       323       320       221       717       528       720       423
 -1       103    4    0    1
 -2       220       319       316       217       222       321       318       219       718       523
 -2       721       418       221       320       317       218       720       525       723       420
 -1       104    4    0    1
 -2       217       316       211       205       219       318       213       207       721       520
 -2       517       415       218       317       212       206       723       522       519       417
 -3
    1PSTEP                         1           1           1          
  100CL  101 1.000000000         416                     0    1           1
 -4  DISP        4    1
 -5  D1          1    2    1    0
 -5  D2          1    2    2    0