    1C
    1C
    1UUSER
    1UDATE              15.december.2018    
    1UTIME              15:50:43
    1UHOST
    1UPGM               CalculiX
    1UDIR
    1UDBN
    2C                                                                   1
 -1         1 0.00000E+00 1.00000E+00 1.00000E-01
 -1         2 0.00000E+00 1.00000E+00 0.00000E+00
 -1         3 5.00000E-01 1.00000E+00 0.00000E+00
 -1         4 5.00000E-01 1.00000E+00 1.00000E-01
 -1         5 0.00000E+00 9.00000E-01 1.00000E-01
 -1         6 0.00000E+00 9.00000E-01 0.00000E+00
 -1         7 5.00000E-01 9.36818E-01-6.93889E-18
 -1         8 5.00000E-01 9.36818E-01 1.00000E-01
 -1         9 1.00000E+00 1.00000E+00 0.00000E+00
 -1        10 1.00000E+00 1.00000E+00 1.00000E-01
 -1        11 1.00000E+00 9.73636E-01 0.00000E+00
 -1        12 1.00000E+00 9.73636E-01 1.00000E-01
 -1        13 0.00000E+00 8.00000E-01 1.00000E-01
 -1        14 0.00000E+00 8.00000E-01 0.00000E+00
 -1        15 5.00000E-01 8.69991E-01 6.93889E-18
 -1        16 5.00000E-01 8.69991E-01 1.00000E-01
 -1        17 1.00000E+00 9.39983E-01 0.00000E+00
 -1        18 1.00000E+00 9.39983E-01 1.00000E-01
 -1        19 0.00000E+00 7.00000E-01 1.00000E-01
 -1        20 0.00000E+00 7.00000E-01 0.00000E+00
 -1        21 5.00000E-01 7.98512E-01 6.93889E-18
 -1        22 5.00000E-01 7.98512E-01 1.00000E-01
 -1        23 1.00000E+00 8.97024E-01 0.00000E+00
 -1        24 1.00000E+00 8.97024E-01 1.00000E-01
 -1        25 0.00000E+00 6.00000E-01 1.00000E-01
 -1        26 0.00000E+00 6.00000E-01 0.00000E+00
 -1        27 5.00000E-01 7.21093E-01-1.38778E-17
 -1        28 5.00000E-01 7.21093E-01 1.00000E-01
 -1        29 1.00000E+00 8.42185E-01 0.00000E+00
 -1        30 1.00000E+00 8.42185E-01 1.00000E-01
 -1        31 0.00000E+00 5.00000E-01 1.00000E-01
 -1        32 0.00000E+00 5.00000E-01 0.00000E+00
 -1        33 5.00000E-01 6.36092E-01 6.93889E-18
 -1        34 5.00000E-01 6.36092E-01 1.00000E-01
 -1        35 1.00000E+00 7.72183E-01 0.00000E+00
 -1        36 1.00000E+00 7.72183E-01 1.00000E-01
 -1        37 0.00000E+00 4.00000E-01 1.00000E-01
 -1        38 0.00000E+00 4.00000E-01 0.00000E+00
 -1        39 5.00000E-01 5.41412E-01 6.93889E-18
 -1        40 5.00000E-01 5.41412E-01 1.00000E-01
 -1        41 1.00000E+00 6.82824E-01 0.00000E+00
 -1        42 1.00000E+00 6.82824E-01 1.00000E-01
 -1        43 0.00000E+00 3.00000E-01 1.00000E-01
 -1        44 0.00000E+00 3.00000E-01 0.00000E+00
 -1        45 5.00000E-01 4.34378E-01 6.93889E-18
 -1        46 5.00000E-01 4.34378E-01 1.00000E-01
 -1        47 1.00000E+00 5.68756E-01 0.00000E+00
 -1        48 1.00000E+00 5.68756E-01 1.00000E-01
 -1        49 0.00000E+00 2.00000E-01 1.00000E-01
 -1        50 0.00000E+00 2.00000E-01 0.00000E+00
 -1        51 5.00000E-01 3.11573E-01 1.38778E-17
 -1        52 5.00000E-01 3.11573E-01 1.00000E-01
 -1        53 1.00000E+00 4.23146E-01 0.00000E+00
 -1        54 1.00000E+00 4.23146E-01 1.00000E-01
 -1        55 0.00000E+00 1.00000E-01 1.00000E-01
 -1        56 0.00000E+00 1.00000E-01 0.00000E+00
 -1        57 5.00000E-01 1.68636E-01-6.93889E-18
 -1        58 5.00000E-01 1.68636E-01 1.00000E-01
 -1        59 1.00000E+00 2.37272E-01 0.00000E+00
 -1        60 1.00000E+00 2.37272E-01 1.00000E-01
 -1        61 0.00000E+00 0.00000E+00 1.00000E-01
 -1        62 0.00000E+00 0.00000E+00 0.00000E+00
 -1        63 5.00000E-01 0.00000E+00 0.00000E+00
 -1        64 5.00000E-01 0.00000E+00 1.00000E-01
 -1        65 1.00000E+00 0.00000E+00 0.00000E+00
 -1        66 1.00000E+00 0.00000E+00 1.00000E-01
 -1        67 1.50000E+00 1.00000E+00 0.00000E+00
 -1        68 1.50000E+00 1.00000E+00 1.00000E-01
 -1        69 1.50000E+00 8.68182E-01 0.00000E+00
 -1        70 1.50000E+00 8.68182E-01 1.00000E-01
 -1        71 2.00000E+00 1.00000E+00 0.00000E+00
 -1        72 2.00000E+00 1.00000E+00 1.00000E-01
 -1        73 2.00000E+00 7.62728E-01 0.00000E+00
 -1        74 2.00000E+00 7.62728E-01 1.00000E-01
 -1        75 1.50000E+00 7.58419E-01-6.93889E-18
 -1        76 1.50000E+00 7.58419E-01 1.00000E-01
 -1        77 2.00000E+00 5.76854E-01 0.00000E+00
 -1        78 2.00000E+00 5.76854E-01 1.00000E-01
 -1        79 1.50000E+00 6.64134E-01-6.93889E-18
 -1        80 1.50000E+00 6.64134E-01 1.00000E-01
 -1        81 2.00000E+00 4.31244E-01 0.00000E+00
 -1        82 2.00000E+00 4.31244E-01 1.00000E-01
 -1        83 1.50000E+00 5.79681E-01 6.93889E-18
 -1        84 1.50000E+00 5.79681E-01 1.00000E-01
 -1        85 2.00000E+00 3.17176E-01 0.00000E+00
 -1        86 2.00000E+00 3.17176E-01 1.00000E-01
 -1        87 1.50000E+00 5.00000E-01 0.00000E+00
 -1        88 1.50000E+00 5.00000E-01 1.00000E-01
 -1        89 2.00000E+00 2.27817E-01 0.00000E+00
 -1        90 2.00000E+00 2.27817E-01 1.00000E-01
 -1        91 1.50000E+00 4.20319E-01-6.93889E-18
 -1        92 1.50000E+00 4.20319E-01 1.00000E-01
 -1        93 2.00000E+00 1.57815E-01 0.00000E+00
 -1        94 2.00000E+00 1.57815E-01 1.00000E-01
 -1        95 1.50000E+00 3.35866E-01-6.93889E-18
 -1        96 1.50000E+00 3.35866E-01 1.00000E-01
 -1        97 2.00000E+00 1.02976E-01 0.00000E+00
 -1        98 2.00000E+00 1.02976E-01 1.00000E-01
 -1        99 1.50000E+00 2.41581E-01-6.93889E-18
 -1       100 1.50000E+00 2.41581E-01 1.00000E-01
 -1       101 2.00000E+00 6.00170E-02 0.00000E+00
 -1       102 2.00000E+00 6.00170E-02 1.00000E-01
 -1       103 1.50000E+00 1.31818E-01 6.93889E-18
 -1       104 1.50000E+00 1.31818E-01 1.00000E-01
 -1       105 2.00000E+00 2.63635E-02 0.00000E+00
 -1       106 2.00000E+00 2.63635E-02 1.00000E-01
 -1       107 1.50000E+00 0.00000E+00 0.00000E+00
 -1       108 1.50000E+00 0.00000E+00 1.00000E-01
 -1       109 2.00000E+00 0.00000E+00 0.00000E+00
 -1       110 2.00000E+00 0.00000E+00 1.00000E-01
 -1       111 2.50000E+00 1.00000E+00 0.00000E+00
 -1       112 2.50000E+00 1.00000E+00 1.00000E-01
 -1       113 2.50000E+00 8.68182E-01 0.00000E+00
 -1       114 2.50000E+00 8.68182E-01 1.00000E-01
 -1       115 3.00000E+00 1.00000E+00 0.00000E+00
 -1       116 3.00000E+00 1.00000E+00 1.00000E-01
 -1       117 3.00000E+00 9.73636E-01 0.00000E+00
 -1       118 3.00000E+00 9.73636E-01 1.00000E-01
 -1       119 2.50000E+00 7.58419E-01 6.93889E-18
 -1       120 2.50000E+00 7.58419E-01 1.00000E-01
 -1       121 3.00000E+00 9.39983E-01 0.00000E+00
 -1       122 3.00000E+00 9.39983E-01 1.00000E-01
 -1       123 2.50000E+00 6.64134E-01-6.93889E-18
 -1       124 2.50000E+00 6.64134E-01 1.00000E-01
 -1       125 3.00000E+00 8.97024E-01 0.00000E+00
 -1       126 3.00000E+00 8.97024E-01 1.00000E-01
 -1       127 2.50000E+00 5.79681E-01 0.00000E+00
 -1       128 2.50000E+00 5.79681E-01 1.00000E-01
 -1       129 3.00000E+00 8.42185E-01 0.00000E+00
 -1       130 3.00000E+00 8.42185E-01 1.00000E-01
 -1       131 2.50000E+00 5.00000E-01 6.93889E-18
 -1       132 2.50000E+00 5.00000E-01 1.00000E-01
 -1       133 3.00000E+00 7.72183E-01 0.00000E+00
 -1       134 3.00000E+00 7.72183E-01 1.00000E-01
 -1       135 2.50000E+00 4.20319E-01-1.38778E-17
 -1       136 2.50000E+00 4.20319E-01 1.00000E-01
 -1       137 3.00000E+00 6.82824E-01 0.00000E+00
 -1       138 3.00000E+00 6.82824E-01 1.00000E-01
 -1       139 2.50000E+00 3.35866E-01-6.93889E-18
 -1       140 2.50000E+00 3.35866E-01 1.00000E-01
 -1       141 3.00000E+00 5.68756E-01 0.00000E+00
 -1       142 3.00000E+00 5.68756E-01 1.00000E-01
 -1       143 2.50000E+00 2.41581E-01 6.93889E-18
 -1       144 2.50000E+00 2.41581E-01 1.00000E-01
 -1       145 3.00000E+00 4.23146E-01 0.00000E+00
 -1       146 3.00000E+00 4.23146E-01 1.00000E-01
 -1       147 2.50000E+00 1.31818E-01 6.93889E-18
 -1       148 2.50000E+00 1.31818E-01 1.00000E-01
 -1       149 3.00000E+00 2.37272E-01 0.00000E+00
 -1       150 3.00000E+00 2.37272E-01 1.00000E-01
 -1       151 2.50000E+00 0.00000E+00 0.00000E+00
 -1       152 2.50000E+00 0.00000E+00 1.00000E-01
 -1       153 3.00000E+00 0.00000E+00 0.00000E+00
 -1       154 3.00000E+00 0.00000E+00 1.00000E-01
 -1       155 3.50000E+00 1.00000E+00 0.00000E+00
 -1       156 3.50000E+00 1.00000E+00 1.00000E-01
 -1       157 3.50000E+00 8.68182E-01 0.00000E+00
 -1       158 3.50000E+00 8.68182E-01 1.00000E-01
 -1       159 4.00000E+00 1.00000E+00 0.00000E+00
 -1       160 4.00000E+00 1.00000E+00 1.00000E-01
 -1       161 4.00000E+00 7.62728E-01 0.00000E+00
 -1       162 4.00000E+00 7.62728E-01 1.00000E-01
 -1       163 3.50000E+00 7.58419E-01-1.38778E-17
 -1       164 3.50000E+00 7.58419E-01 1.00000E-01
 -1       165 4.00000E+00 5.76854E-01 0.00000E+00
 -1       166 4.00000E+00 5.76854E-01 1.00000E-01
 -1       167 3.50000E+00 6.64134E-01-6.93889E-18
 -1       168 3.50000E+00 6.64134E-01 1.00000E-01
 -1       169 4.00000E+00 4.31244E-01 0.00000E+00
 -1       170 4.00000E+00 4.31244E-01 1.00000E-01
 -1       171 3.50000E+00 5.79681E-01 0.00000E+00
 -1       172 3.50000E+00 5.79681E-01 1.00000E-01
 -1       173 4.00000E+00 3.17176E-01 0.00000E+00
 -1       174 4.00000E+00 3.17176E-01 1.00000E-01
 -1       175 3.50000E+00 5.00000E-01 6.93889E-18
 -1       176 3.50000E+00 5.00000E-01 1.00000E-01
 -1       177 4.00000E+00 2.27817E-01 0.00000E+00
 -1       178 4.00000E+00 2.27817E-01 1.00000E-01
 -1       179 3.50000E+00 4.20319E-01-1.38778E-17
 -1       180 3.50000E+00 4.20319E-01 1.00000E-01
 -1       181 4.00000E+00 1.57815E-01 0.00000E+00
 -1       182 4.00000E+00 1.57815E-01 1.00000E-01
 -1       183 3.50000E+00 3.35866E-01-6.93889E-18
 -1       184 3.50000E+00 3.35866E-01 1.00000E-01
 -1       185 4.00000E+00 1.02976E-01 0.00000E+00
 -1       186 4.00000E+00 1.02976E-01 1.00000E-01
 -1       187 3.50000E+00 2.41581E-01 6.93889E-18
 -1       188 3.50000E+00 2.41581E-01 1.00000E-01
 -1       189 4.00000E+00 6.00170E-02 0.00000E+00
 -1       190 4.00000E+00 6.00170E-02 1.00000E-01
 -1       191 3.50000E+00 1.31818E-01 6.93889E-18
 -1       192 3.50000E+00 1.31818E-01 1.00000E-01
 -1       193 4.00000E+00 2.63635E-02 0.00000E+00
 -1       194 4.00000E+00 2.63635E-02 1.00000E-01
 -1       195 3.50000E+00 0.00000E+00 0.00000E+00
 -1       196 3.50000E+00 0.00000E+00 1.00000E-01
 -1       197 4.00000E+00 0.00000E+00 0.00000E+00
 -1       198 4.00000E+00 0.00000E+00 1.00000E-01
 -1       199 4.50000E+00 1.00000E+00 0.00000E+00
 -1       200 4.50000E+00 1.00000E+00 1.00000E-01
 -1       201 4.50000E+00 8.68182E-01 0.00000E+00
 -1       202 4.50000E+00 8.68182E-01 1.00000E-01
 -1       203 5.00000E+00 1.00000E+00 0.00000E+00
 -1       204 5.00000E+00 1.00000E+00 1.00000E-01
 -1       205 5.00000E+00 9.73636E-01 0.00000E+00
 -1       206 5.00000E+00 9.73636E-01 1.00000E-01
 -1       207 4.50000E+00 7.58419E-01-6.93889E-18
 -1       208 4.50000E+00 7.58419E-01 1.00000E-01
 -1       209 5.00000E+00 9.39983E-01 0.00000E+00
 -1       210 5.00000E+00 9.39983E-01 1.00000E-01
 -1       211 4.50000E+00 6.64134E-01-6.93889E-18
 -1       212 4.50000E+00 6.64134E-01 1.00000E-01
 -1       213 5.00000E+00 8.97024E-01 0.00000E+00
 -1       214 5.00000E+00 8.97024E-01 1.00000E-01
 -1       215 4.50000E+00 5.79681E-01 6.93889E-18
 -1       216 4.50000E+00 5.79681E-01 1.00000E-01
 -1       217 5.00000E+00 8.42185E-01 0.00000E+00
 -1       218 5.00000E+00 8.42185E-01 1.00000E-01
 -1       219 4.50000E+00 5.00000E-01 6.93889E-18
 -1       220 4.50000E+00 5.00000E-01 1.00000E-01
 -1       221 5.00000E+00 7.72183E-01 0.00000E+00
 -1       222 5.00000E+00 7.72183E-01 1.00000E-01
 -1       223 4.50000E+00 4.20319E-01 0.00000E+00
 -1       224 4.50000E+00 4.20319E-01 1.00000E-01
 -1       225 5.00000E+00 6.82824E-01 0.00000E+00
 -1       226 5.00000E+00 6.82824E-01 1.00000E-01
 -1       227 4.50000E+00 3.35866E-01-6.93889E-18
 -1       228 4.50000E+00 3.35866E-01 1.00000E-01
 -1       229 5.00000E+00 5.68756E-01 0.00000E+00
 -1       230 5.00000E+00 5.68756E-01 1.00000E-01
 -1       231 4.50000E+00 2.41581E-01-6.93889E-18
 -1       232 4.50000E+00 2.41581E-01 1.00000E-01
 -1       233 5.00000E+00 4.23146E-01 0.00000E+00
 -1       234 5.00000E+00 4.23146E-01 1.00000E-01
 -1       235 4.50000E+00 1.31818E-01 6.93889E-18
 -1       236 4.50000E+00 1.31818E-01 1.00000E-01
 -1       237 5.00000E+00 2.37272E-01 0.00000E+00
 -1       238 5.00000E+00 2.37272E-01 1.00000E-01
 -1       239 4.50000E+00 0.00000E+00 0.00000E+00
 -1       240 4.50000E+00 0.00000E+00 1.00000E-01
 -1       241 5.00000E+00 0.00000E+00 0.00000E+00
 -1       242 5.00000E+00 0.00000E+00 1.00000E-01
 -1       243 5.50000E+00 1.00000E+00 0.00000E+00
 -1       244 5.50000E+00 1.00000E+00 1.00000E-01
 -1       245 5.50000E+00 8.68182E-01 0.00000E+00
 -1       246 5.50000E+00 8.68182E-01 1.00000E-01
 -1       247 6.00000E+00 1.00000E+00 0.00000E+00
 -1       248 6.00000E+00 1.00000E+00 1.00000E-01
 -1       249 6.00000E+00 8.68182E-01 0.00000E+00
 -1       250 6.00000E+00 8.68182E-01 1.00000E-01
 -1       251 5.50000E+00 7.58419E-01 1.38778E-17
 -1       252 5.50000E+00 7.58419E-01 1.00000E-01
 -1       253 6.00000E+00 7.58419E-01 0.00000E+00
 -1       254 6.00000E+00 7.58419E-01 1.00000E-01
 -1       255 5.50000E+00 6.64134E-01 2.08167E-17
 -1       256 5.50000E+00 6.64134E-01 1.00000E-01
 -1       257 6.00000E+00 6.64134E-01 0.00000E+00
 -1       258 6.00000E+00 6.64134E-01 1.00000E-01
 -1       259 5.50000E+00 5.79681E-01 6.93889E-18
 -1       260 5.50000E+00 5.79681E-01 1.00000E-01
 -1       261 6.00000E+00 5.79681E-01 0.00000E+00
 -1       262 6.00000E+00 5.79681E-01 1.00000E-01
 -1       263 5.50000E+00 5.00000E-01 1.38778E-17
 -1       264 5.50000E+00 5.00000E-01 1.00000E-01
 -1       265 6.00000E+00 5.00000E-01 0.00000E+00
 -1       266 6.00000E+00 5.00000E-01 1.00000E-01
 -1       267 5.50000E+00 4.20319E-01 6.93889E-18
 -1       268 5.50000E+00 4.20319E-01 1.00000E-01
 -1       269 6.00000E+00 4.20319E-01 0.00000E+00
 -1       270 6.00000E+00 4.20319E-01 1.00000E-01
 -1       271 5.50000E+00 3.35866E-01 0.00000E+00
 -1       272 5.50000E+00 3.35866E-01 1.00000E-01
 -1       273 6.00000E+00 3.35866E-01 0.00000E+00
 -1       274 6.00000E+00 3.35866E-01 1.00000E-01
 -1       275 5.50000E+00 2.41581E-01 1.38778E-17
 -1       276 5.50000E+00 2.41581E-01 1.00000E-01
 -1       277 6.00000E+00 2.41581E-01 0.00000E+00
 -1       278 6.00000E+00 2.41581E-01 1.00000E-01
 -1       279 5.50000E+00 1.31818E-01 6.93889E-18
 -1       280 5.50000E+00 1.31818E-01 1.00000E-01
 -1       281 6.00000E+00 1.31818E-01 0.00000E+00
 -1       282 6.00000E+00 1.31818E-01 1.00000E-01
 -1       283 5.50000E+00 0.00000E+00 0.00000E+00
 -1       284 5.50000E+00 0.00000E+00 1.00000E-01
 -1       285 6.00000E+00 0.00000E+00 0.00000E+00
 -1       286 6.00000E+00 0.00000E+00 1.00000E-01
 -3
    3C                                                                   1
 -1         1    1    0AIR  
 -2         1         2         3         4         5         6         7         8
 -1         2    1    0AIR  
 -2         4         3         9        10         8         7        11        12
 -1         3    1    0AIR  
 -2         5         6         7         8        13        14        15        16
 -1         4    1    0AIR  
 -2         8         7        11        12        16        15        17        18
 -1         5    1    0AIR  
 -2        13        14        15        16        19        20        21        22
 -1         6    1    0AIR  
 -2        16        15        17        18        22        21        23        24
 -1         7    1    0AIR  
 -2        19        20        21        22        25        26        27        28
 -1         8    1    0AIR  
 -2        22        21        23        24        28        27        29        30
 -1         9    1    0AIR  
 -2        25        26        27        28        31        32        33        34
 -1        10    1    0AIR  
 -2        28        27        29        30        34        33        35        36
 -1        11    1    0AIR  
 -2        31        32        33        34        37        38        39        40
 -1        12    1    0AIR  
 -2        34        33        35        36        40        39        41        42
 -1        13    1    0AIR  
 -2        37        38        39        40        43        44        45        46
 -1        14    1    0AIR  
 -2        40        39        41        42        46        45        47        48
 -1        15    1    0AIR  
 -2        43        44        45        46        49        50        51        52
 -1        16    1    0AIR  
 -2        46        45        47        48        52        51        53        54
 -1        17    1    0AIR  
 -2        49        50        51        52        55        56        57        58
 -1        18    1    0AIR  
 -2        52        51        53        54        58        57        59        60
 -1        19    1    0AIR  
 -2        55        56        57        58        61        62        63        64
 -1        20    1    0AIR  
 -2        58        57        59        60        64        63        65        66
 -1        21    1    0AIR  
 -2        10         9        67        68        12        11        69        70
 -1        22    1    0AIR  
 -2        68        67        71        72        70        69        73        74
 -1        23    1    0AIR  
 -2        12        11        69        70        18        17        75        76
 -1        24    1    0AIR  
 -2        70        69        73        74        76        75        77        78
 -1        25    1    0AIR  
 -2        18        17        75        76        24        23        79        80
 -1        26    1    0AIR  
 -2        76        75        77        78        80        79        81        82
 -1        27    1    0AIR  
 -2        24        23        79        80        30        29        83        84
 -1        28    1    0AIR  
 -2        80        79        81        82        84        83        85        86
 -1        29    1    0AIR  
 -2        30        29        83        84        36        35        87        88
 -1        30    1    0AIR  
 -2        84        83        85        86        88        87        89        90
 -1        31    1    0AIR  
 -2        36        35        87        88        42        41        91        92
 -1        32    1    0AIR  
 -2        88        87        89        90        92        91        93        94
 -1        33    1    0AIR  
 -2        42        41        91        92        48        47        95        96
 -1        34    1    0AIR  
 -2        92        91        93        94        96        95        97        98
 -1        35    1    0AIR  
 -2        48        47        95        96        54        53        99       100
 -1        36    1    0AIR  
 -2        96        95        97        98       100        99       101       102
 -1        37    1    0AIR  
 -2        54        53        99       100        60        59       103       104
 -1        38    1    0AIR  
 -2       100        99       101       102       104       103       105       106
 -1        39    1    0AIR  
 -2        60        59       103       104        66        65       107       108
 -1        40    1    0AIR  
 -2       104       103       105       106       108       107       109       110
 -1        41    1    0AIR  
 -2        72        71       111       112        74        73       113       114
 -1        42    1    0AIR  
 -2       112       111       115       116       114       113       117       118
 -1        43    1    0AIR  
 -2        74        73       113       114        78        77       119       120
 -1        44    1    0AIR  
 -2       114       113       117       118       120       119       121       122
 -1        45    1    0AIR  
 -2        78        77       119       120        82        81       123       124
 -1        46    1    0AIR  
 -2       120       119       121       122       124       123       125       126
 -1        47    1    0AIR  
 -2        82        81       123       124        86        85       127       128
 -1        48    1    0AIR  
 -2       124       123       125       126       128       127       129       130
 -1        49    1    0AIR  
 -2        86        85       127       128        90        89       131       132
 -1        50    1    0AIR  
 -2       128       127       129       130       132       131       133       134
 -1        51    1    0AIR  
 -2        90        89       131       132        94        93       135       136
 -1        52    1    0AIR  
 -2       132       131       133       134       136       135       137       138
 -1        53    1    0AIR  
 -2        94        93       135       136        98        97       139       140
 -1        54    1    0AIR  
 -2       136       135       137       138       140       139       141       142
 -1        55    1    0AIR  
 -2        98        97       139       140       102       101       143       144
 -1        56    1    0AIR  
 -2       140       139       141       142       144       143       145       146
 -1        57    1    0AIR  
 -2       102       101       143       144       106       105       147       148
 -1        58    1    0AIR  
 -2       144       143       145       146       148       147       149       150
 -1        59    1    0AIR  
 -2       106       105       147       148       110       109       151       152
 -1        60    1    0AIR  
 -2       148       147       149       150       152       151       153       154
 -1        61    1    0AIR  
 -2       116       115       155       156       118       117       157       158
 -1        62    1    0AIR  
 -2       156       155       159       160       158       157       161       162
 -1        63    1    0AIR  
 -2       118       117       157       158       122       121       163       164
 -1        64    1    0AIR  
 -2       158       157       161       162       164       163       165       166
 -1        65    1    0AIR  
 -2       122       121       163       164       126       125       167       168
 -1        66    1    0AIR  
 -2       164       163       165       166       168       167       169       170
 -1        67    1    0AIR  
 -2       126       125       167       168       130       129       171       172
 -1        68    1    0AIR  
 -2       168       167       169       170       172       171       173       174
 -1        69    1    0AIR  
 -2       130       129       171       172       134       133       175       176
 -1        70    1    0AIR  
 -2       172       171       173       174       176       175       177       178
 -1        71    1    0AIR  
 -2       134       133       175       176       138       137       179       180
 -1        72    1    0AIR  
 -2       176       175       177       178       180       179       181       182
 -1        73    1    0AIR  
 -2       138       137       179       180       142       141       183       184
 -1        74    1    0AIR  
 -2       180       179       181       182       184       183       185       186
 -1        75    1    0AIR  
 -2       142       141       183       184       146       145       187       188
 -1        76    1    0AIR  
 -2       184       183       185       186       188       187       189       190
 -1        77    1    0AIR  
 -2       146       145       187       188       150       149       191       192
 -1        78    1    0AIR  
 -2       188       187       189       190       192       191       193       194
 -1        79    1    0AIR  
 -2       150       149       191       192       154       153       195       196
 -1        80    1    0AIR  
 -2       192       191       193       194       196       195       197       198
 -1        81    1    0AIR  
 -2       160       159       199       200       162       161       201       202
 -1        82    1    0AIR  
 -2       200       199       203       204       202       201       205       206
 -1        83    1    0AIR  
 -2       162       161       201       202       166       165       207       208
 -1        84    1    0AIR  
 -2       202       201       205       206       208       207       209       210
 -1        85    1    0AIR  
 -2       166       165       207       208       170       169       211       212
 -1        86    1    0AIR  
 -2       208       207       209       210       212       211       213       214
 -1        87    1    0AIR  
 -2       170       169       211       212       174       173       215       216
 -1        88    1    0AIR  
 -2       212       211       213       214       216       215       217       218
 -1        89    1    0AIR  
 -2       174       173       215       216       178       177       219       220
 -1        90    1    0AIR  
 -2       216       215       217       218       220       219       221       222
 -1        91    1    0AIR  
 -2       178       177       219       220       182       181       223       224
 -1        92    1    0AIR  
 -2       220       219       221       222       224       223       225       226
 -1        93    1    0AIR  
 -2       182       181       223       224       186       185       227       228
 -1        94    1    0AIR  
 -2       224       223       225       226       228       227       229       230
 -1        95    1    0AIR  
 -2       186       185       227       228       190       189       231       232
 -1        96    1    0AIR  
 -2       228       227       229       230       232       231       233       234
 -1        97    1    0AIR  
 -2       190       189       231       232       194       193       235       236
 -1        98    1    0AIR  
 -2       232       231       233       234       236       235       237       238
 -1        99    1    0AIR  
 -2       194       193       235       236       198       197       239       240
 -1       100    1    0AIR  
 -2       236       235       237       238       240       239       241       242
 -1       101    1    0AIR  
 -2       204       203       243       244       206       205       245       246
 -1       102    1    0AIR  
 -2       244       243       247       248       246       245       249       250
 -1       103    1    0AIR  
 -2       206       205       245       246       210       209       251       252
 -1       104    1    0AIR  
 -2       246       245       249       250       252       251       253       254
 -1       105    1    0AIR  
 -2       210       209       251       252       214       213       255       256
 -1       106    1    0AIR  
 -2       252       251       253       254       256       255       257       258
 -1       107    1    0AIR  
 -2       214       213       255       256       218       217       259       260
 -1       108    1    0AIR  
 -2       256       255       257       258       260       259       261       262
 -1       109    1    0AIR  
 -2       218       217       259       260       222       221       263       264
 -1       110    1    0AIR  
 -2       260       259       261       262       264       263       265       266
 -1       111    1    0AIR  
 -2       222       221       263       264       226       225       267       268
 -1       112    1    0AIR  
 -2       264       263       265       266       268       267       269       270
 -1       113    1    0AIR  
 -2       226       225       267       268       230       229       271       272
 -1       114    1    0AIR  
 -2       268       267       269       270       272       271       273       274
 -1       115    1    0AIR  
 -2       230       229       271       272       234       233       275       276
 -1       116    1    0AIR  
 -2       272       271       273       274       276       275       277       278
 -1       117    1    0AIR  
 -2       234       233       275       276       238       237       279       280
 -1       118    1    0AIR  
 -2       276       275       277       278       280       279       281       282
 -1       119    1    0AIR  
 -2       238       237       279       280       242       241       283       284
 -1       120    1    0AIR  
 -2       280       279       281       282       284       283       285       286
 -3
    1PSTEP                         1                                                                                                
  100CL  101 0.10000E-01         286                     3    1           1                                                         
 -4  V3DF        4    1                                                                                                             
 -5  V1          1    2    1    0                                                                                                   
 -5  V2          1    2    2    0                                                                                                   
 -5  V3          1    2    3    0                                                                                                   
 -5  ALL         1    2    0    0    1ALL                                                                                           
 -1         1 9.75000E-01 0.00000E+00 0.00000E+00
 -1         2 9.75000E-01 0.00000E+00 0.00000E+00
 -1         3 1.00000E+00 0.00000E+00 0.00000E+00
 -1         4 1.00000E+00 0.00000E+00 0.00000E+00
 -1         5 9.00000E-01 0.00000E+00 0.00000E+00
 -1         6 9.00000E-01 0.00000E+00 0.00000E+00
 -1         7 9.36355E-01 2.79092E-05-1.33022E-17
 -1         8 9.36355E-01 2.79092E-05-1.33022E-17
 -1         9 1.00000E+00 0.00000E+00 0.00000E+00
 -1        10 1.00000E+00 0.00000E+00 0.00000E+00
 -1        11 9.72672E-01 6.20505E-05 4.82062E-18
 -1        12 9.72672E-01 6.20505E-05 4.82062E-18
 -1        13 8.00000E-01 0.00000E+00 0.00000E+00
 -1        14 8.00000E-01 0.00000E+00 0.00000E+00
 -1        15 8.69708E-01 3.08539E-05-3.00601E-17
 -1        16 8.69708E-01 3.08539E-05-3.00601E-17
 -1        17 9.38390E-01 5.96250E-05 2.78390E-17