    1C
    1UUSER                                                              
    1UDATE              15.december.2018                                
    1UTIME              15:50:43                                        
    1UHOST                                                              
    1UPGM               CalculiX                                        
    1UVERSION           Version 2.15                             
    1UCOMPILETIME       Sa 15. Dez 14:32:01 CET 2018                    
    1UDIR                                                               
    1UDBN                                                               
    1UMAT    1EL                                                        
    1UMAT    2SI1                                                       
    2C                            16                                     1
 -1         1 1.00000E+00 1.00000E+00-1.49012E-08
 -1         2 1.00000E+00 0.00000E+00-1.49012E-08
 -1         3 1.00000E+00 0.00000E+00 1.00000E+00
 -1         4 1.00000E+00 1.00000E+00 1.00000E+00
 -1         5-7.45058E-09 1.00000E+00-1.49012E-08
 -1         6-7.45058E-09 0.00000E+00-1.49012E-08
 -1         7-7.45058E-09 0.00000E+00 1.00000E+00
 -1         8-7.45058E-09 1.00000E+00 1.00000E+00
 -1         9 5.00000E-01 6.41421E-01 1.00000E+00
 -1        10 6.41421E-01 5.00000E-01 1.00000E+00
 -1        11 6.41421E-01 5.00000E-01 1.20000E+00
 -1        12 5.00000E-01 6.41421E-01 1.20000E+00
 -1        13 3.58579E-01 5.00000E-01 1.00000E+00
 -1        14 5.00000E-01 3.58579E-01 1.00000E+00
 -1        15 5.00000E-01 3.58579E-01 1.20000E+00
 -1        16 3.58579E-01 5.00000E-01 1.20000E+00
 -3
    3C                             2                                     1
 -1         1    1    0    1
 -2         1         2         3         4         5         6         7         8
 -1         2    1    0    1
 -2         9        10        11        12        13        14        15        16
 -3
    1PSTEP                         1           1           1          
  100CL  101 1.00000E-01          16                     0    1           1
 -4  DISP        4    1
 -5  D1          1    2    1    0
 -5  D2          1    2    2    0
 -5  D3          1    2    3    0
 -5  ALL         1    2    0    0    1ALL
 -1         1 0.00000E+00 0.00000E+00 0.00000E+00
 -1         2 0.00000E+00 0.00000E+00 0.00000E+00
 -1         3 3.71446E-07-3.70454E-07-1.73339E-06
 -1         4 3.71446E-07 3.72438E-07-1.73339E-06
 -1         5 0.00000E+00 0.00000E+00 0.00000E+00
 -1         6 0.00000E+00 0.00000E+00 0.00000E+00
 -1         7-3.71446E-07-3.70454E-07-1.73339E-06
 -1         8-3.71446E-07 3.72438E-07-1.73339E-06
 -1         9 1.82225E-17 4.02539E-06-2.73341E-06
 -1        10 2.01954E-06 2.00505E-06-2.73341E-06
 -1        11 2.02170E-06 2.01029E-06-1.22587E-05
 -1        12 0.00000E+00 4.03491E-06-1.22627E-05
 -1        13-2.01954E-06 2.00505E-06-2.73341E-06
 -1        14 1.82468E-17-1.72129E-08-2.73341E-06
 -1        15 0.00000E+00 0.00000E+00-1.22504E-05
 -1        16-2.02170E-06 2.01029E-06-1.22587E-05
 -3
    1PSTEP                         2           1           1          
  100CL  101 1.00000E-01          16                     0    1           1
 -4  STRESS      6    1
 -5  SXX         1    4    1    1
 -5  SYY         1    4    2    2
 -5  SZZ         1    4    3    3
 -5  SXY         1    4    1    2
 -5  SYZ         1    4    2    3
 -5  SZX         1    4    3    1
 -1         1-2.10003E-01-2.10003E-01-4.89997E-01 2.23470E-08 3.00812E-02 3.00010E-02
 -1         2-2.10003E-01-2.10003E-01-4.89997E-01-2.22279E-08-2.99209E-02 3.00010E-02
 -1         3 9.00095E-02 9.00095E-02-3.09989E-01-2.22510E-08-2.99209E-02 3.00011E-02
 -1         4 9.00095E-02 9.00095E-02-3.09989E-01 2.23240E-08 3.00812E-02 3.00011E-02
 -1         5-2.10003E-01-2.10003E-01-4.89997E-01-2.23470E-08 3.00812E-02-3.00010E-02
 -1         6-2.10003E-01-2.10003E-01-4.89997E-01 2.22279E-08-2.99209E-02-3.00010E-02
 -1         7 9.00095E-02 9.00095E-02-3.09989E-01 2.22518E-08-2.99209E-02-3.00011E-02
 -1         8 9.00095E-02 9.00095E-02-3.09989E-01-2.23230E-08 3.00812E-02-3.00011E-02
 -1         9-4.60393E-03-3.68546E-03-1.00068E+01 2.88519E-12 3.84248E-03-7.35948E-12
 -1        10-1.40498E-03 6.08244E-04-1.00004E+01 5.47377E-04 2.11771E-03 8.71266E-04
 -1        11-3.88646E-04-5.23628E-03-1.00019E+01-4.09031E-03-1.38955E-03-3.94231E-04
 -1        12 3.36893E-03 6.70191E-03-1.00013E+01-4.02102E-12 1.60072E-03-3.58159E-12
 -1        13-1.40498E-03 6.08244E-04-1.00004E+01-5.47377E-04 2.11771E-03-8.71266E-04
 -1        14 4.47866E-03 7.58663E-03-9.98781E+00-2.88655E-12 6.95038E-03-7.36787E-12
 -1        15-1.46154E-03-1.44898E-02-9.99621E+00 4.02595E-12 2.17762E-03-3.59163E-12
 -1        16-3.88646E-04-5.23628E-03-1.00019E+01 4.09031E-03-1.38955E-03 3.94231E-04
 -3
    1PSTEP                         3           1           1          
  100CL  101 1.00000E-01          16                     0    1           1
 -4  CONTACT     6    1
 -5  COPEN       1    4    1    1
 -5  CSLIP1      1    4    2    2
 -5  CSLIP2      1    4    3    3
 -5  CPRESS      1    4    1    2
 -5  CSHEAR1     1    4    2    3
 -5  CSHEAR2     1    4    3    1
 -1         1 0.00000E+00 0.00000E+00 0.00000E+00 0.00000E+00 0.00000E+00 0.00000E+00
 -1         2 0.00000E+00 0.00000E+00 0.00000E+00 0.00000E+00 0.00000E+00 0.00000E+00
 -1         3 0.00000E+00 0.00000E+00 0.00000E+00 0.00000E+00 0.00000E+00 0.00000E+00
 -1         4 0.00000E+00 0.00000E+00 0.00000E+00 0.00000E+00 0.00000E+00 0.00000E+00
 -1         5 0.00000E+00 0.00000E+00 0.00000E+00 0.00000E+00 0.00000E+00 0.00000E+00
 -1         6 0.00000E+00 0.00000E+00 0.00000E+00 0.00000E+00 0.00000E+00 0.00000E+00
 -1         7 0.00000E+00 0.00000E+00 0.00000E+00 0.00000E+00 0.00000E+00 0.00000E+00
 -1         8 0.00000E+00 0.00000E+00 0.00000E+00 0.00000E+00 0.00000E+00 0.00000E+00
 -1         9-1.00003E-06-2.70071E-15 3.53134E-06 1.00003E+01-2.70071E-12 3.53134E-03
 -1        10-1.00003E-06 1.52666E-06 2.00406E-06 1.00003E+01 1.52666E-03 2.00406E-03
 -1        11 0.00000E+00 0.00000E+00 0.00000E+00 0.00000E+00 0.00000E+00 0.00000E+00
 -1        12 0.00000E+00 0.00000E+00 0.00000E+00 0.00000E+00 0.00000E+00 0.00000E+00
 -1        13-1.00003E-06-1.52666E-06 2.00406E-06 1.00003E+01-1.52666E-03 2.00406E-03
 -1        14-1.00003E-06-2.70683E-15 4.75214E-07 1.00003E+01-2.70683E-12 4.75214E-04
 -1        15 0.00000E+00 0.00000E+00 0.00000E+00 0.00000E+00 0.00000E+00 0.00000E+00
 -1        16 0.00000E+00 0.00000E+00 0.00000E+00 0.00000E+00 0.00000E+00 0.00000E+00
 -3
    1PSTEP                         4           2           1          
  100CL  102 2.00000E-01          16                     0    2           1
 -4  DISP        4    1
 -5  D1          1    2    1    0
 -5  D2          1    2    2    0
 -5  D3          1    2    3    0
 -5  ALL         1    2    0    0    1ALL
 -1         1 0.00000E+00 0.00000E+00 0.00000E+00
 -1         2 0.00000E+00 0.00000E+00 0.00000E+00
 -1         3 7.42914E-07-7.40929E-07-3.46688E-06
 -1         4 7.42914E-07 7.44899E-07-3.46688E-06
 -1         5 0.00000E+00 0.00000E+00 0.00000E+00
 -1         6 0.00000E+00 0.00000E+00 0.00000E+00
 -1         7-7.42914E-07-7.40929E-07-3.46688E-06
 -1         8-7.42914E-07 7.44899E-07-3.46688E-06
 -1         9 3.30446E-17 8.05133E-06-6.35585E-06
 -1        10 4.03936E-06 4.01037E-06-6.35585E-06
 -1        11 4.04368E-06 4.02086E-06-2.54084E-05
 -1        12 0.00000E+00 8.07037E-06-2.54163E-05
 -1        13-4.03936E-06 4.01037E-06-6.35585E-06
 -1        14 3.30822E-17-3.44371E-08-6.35585E-06
 -1        15 0.00000E+00 0.00000E+00-2.53917E-05
 -1        16-4.04368E-06 4.02086E-06-2.54084E-05
 -3
    1PSTEP                         5           2           1          
  100CL  102 2.00000E-01          16                     0    2           1
 -4  STRESS      6    1
 -5  SXX         1    4    1    1
 -5  SYY         1    4    2    2
 -5  SZZ         1    4    3    3
 -5  SXY         1    4    1    2
 -5  SYZ         1    4    2    3
 -5  SZX         1    4    3    1
 -1         1-4.20020E-01-4.20020E-01-9.80022E-01 8.93932E-08 6.01638E-02 6.00035E-02
 -1         2-4.20020E-01-4.20020E-01-9.80022E-01-8.89169E-08-5.98432E-02 6.00035E-02
 -1         3 1.80025E-01 1.80025E-01-6.19995E-01-8.89830E-08-5.98435E-02 6.00038E-02
 -1         4 1.80025E-01 1.80025E-01-6.19995E-01 8.93277E-08 6.01640E-02 6.00038E-02
 -1         5-4.20020E-01-4.20020E-01-9.80022E-01-8.93932E-08 6.01638E-02-6.00035E-02
 -1         6-4.20020E-01-4.20020E-01-9.80022E-01 8.89169E-08-5.98432E-02-6.00035E-02
 -1         7 1.80025E-01 1.80025E-01-6.19995E-01 8.89845E-08-5.98435E-02-6.00038E-02
 -1         8 1.80025E-01 1.80025E-01-6.19995E-01-8.93260E-08 6.01640E-02-6.00038E-02
 -1         9-9.21135E-03-7.37342E-03-2.00136E+01 5.22058E-12 7.68651E-03-1.33437E-11
 -1        10-2.81071E-03 1.21737E-03-2.00009E+01 1.09508E-03 4.23641E-03 1.74279E-03
 -1        11-7.77751E-04-1.04765E-02-2.00038E+01-8.18370E-03-2.78076E-03-7.89013E-04
 -1        12 6.73978E-03 1.34085E-02-2.00026E+01-7.29521E-12 3.20115E-03-6.49135E-12
 -1        13-2.81071E-03 1.21737E-03-2.00009E+01-1.09508E-03 4.23641E-03-1.74279E-03
 -1        14 8.96135E-03 1.51796E-02-1.99756E+01-5.22072E-12 1.39036E-02-1.33578E-11
 -1        15-2.92386E-03-2.89900E-02-1.99924E+01 7.29456E-12 4.35461E-03-6.50883E-12
 -1        16-7.77751E-04-1.04765E-02-2.00038E+01 8.18370E-03-2.78076E-03 7.89013E-04
 -3
    1PSTEP                         6           2           1          
  100CL  102 2.00000E-01          16                     0    2           1
 -4  CONTACT     6    1
 -5  COPEN       1    4    1    1
 -5  CSLIP1      1    4    2    2
 -5  CSLIP2      1    4    3    3
 -5  CPRESS      1    4    1    2
 -5  CSHEAR1     1    4    2    3
 -5  CSHEAR2     1    4    3    1
 -1         1 0.00000E+00 0.00000E+00 0.00000E+00 0.00000E+00 0.00000E+00 0.00000E+00
 -1         2 0.00000E+00 0.00000E+00 0.00000E+00 0.00000E+00 0.00000E+00 0.00000E+00
 -1         3 0.00000E+00 0.00000E+00 0.00000E+00 0.00000E+00 0.00000E+00 0.00000E+00
 -1         4 0.00000E+00 0.00000E+00 0.00000E+00 0.00000E+00 0.00000E+00 0.00000E+00
 -1         5 0.00000E+00 0.00000E+00 0.00000E+00 0.00000E+00 0.00000E+00 0.00000E+00
 -1         6 0.00000E+00 0.00000E+00 0.00000E+00 0.00000E+00 0.00000E+00 0.00000E+00
 -1         7 0.00000E+00 0.00000E+00 0.00000E+00 0.00000E+00 0.00000E+00 0.00000E+00
 -1         8 0.00000E+00 0.00000E+00 0.00000E+00 0.00000E+00 0.00000E+00 0.00000E+00
 -1         9-2.00006E-06-4.34452E-15 7.06316E-06 2.00006E+01-4.34452E-12 7.06316E-03
 -1        10-2.00006E-06 3.05353E-06 4.00838E-06 2.00006E+01 3.05353E-03 4.00838E-03
 -1        11 0.00000E+00 0.00000E+00 0.00000E+00 0.00000E+00 0.00000E+00 0.00000E+00
 -1        12 0.00000E+00 0.00000E+00 0.00000E+00 0.00000E+00 0.00000E+00 0.00000E+00
 -1        13-2.00006E-06-3.05353E-06 4.00838E-06 2.00006E+01-3.05353E-03 4.00838E-03
 -1        14-2.00006E-06-4.35564E-15 9.50477E-07 2.00006E+01-4.35563E-12 9.50477E-04
 -1        15 0.00000E+00 0.00000E+00 0.00000E+00 0.00000E+00 0.00000E+00 0.00000E+00
 -1        16 0.00000E+00 0.00000E+00 0.00000E+00 0.00000E+00 0.00000E+00 0.00000E+00
 -3
    1PSTEP                         7           3           1          
  100CL  103 3.50000E-01          16                     0    3           1
 -4  DISP        4    1
 -5  D1          1    2    1    0
 -5  D2          1    2    2    0
 -5  D3          1    2    3    0
 -5  ALL         1    2    0    0    1ALL
 -1         1 0.00000E+00 0.00000E+00 0.00000E+00
 -1         2 0.00000E+00 0.00000E+00 0.00000E+00
 -1         3 1.30016E-06-1.29668E-06-6.06732E-06
 -1         4 1.30016E-06 1.30363E-06-6.06732E-06
 -1         5 0.00000E+00 0.00000E+00 0.00000E+00
 -1         6 0.00000E+00 0.00000E+00 0.00000E+00
 -1         7-1.30016E-06-1.29668E-06-6.06732E-06
 -1         8-1.30016E-06 1.30363E-06-6.06732E-06
 -1         9 6.15249E-17 1.40913E-05-1.19148E-05
 -1        10 7.06961E-06 7.01885E-06-1.19148E-05
 -1        11 7.07717E-06 7.03722E-06-4.52618E-05
 -1        12 0.00000E+00 1.41246E-05-4.52755E-05
 -1        13-7.06961E-06 7.01885E-06-1.19148E-05
 -1        14 6.15881E-17-6.02937E-08-1.19148E-05
 -1        15 0.00000E+00 0.00000E+00-4.52325E-05
 -1        16-7.07717E-06 7.03722E-06-4.52618E-05
 -3
    1PSTEP                         8           3           1          
  100CL  103 3.50000E-01          16                     0    3           1
 -4  STRESS      6    1
 -5  SXX         1    4    1    1
 -5  SYY         1    4    2    2
 -5  SZZ         1    4    3    3
 -5  SXY         1    4    1    2
 -5  SYZ         1    4    2    3
 -5  SZX         1    4    3    1
 -1         1-7.35070E-01-7.35070E-01-1.71511E+00 2.73791E-07 1.05290E-01 1.05010E-01
 -1         2-7.35070E-01-7.35070E-01-1.71511E+00-2.72332E-07-1.04729E-01 1.05010E-01
 -1         3 3.15059E-01 3.15059E-01-1.08504E+00-2.72524E-07-1.04730E-01 1.05011E-01
 -1         4 3.15059E-01 3.15059E-01-1.08504E+00 2.73602E-07 1.05291E-01 1.05011E-01
 -1         5-7.35070E-01-7.35070E-01-1.71511E+00-2.73791E-07 1.05290E-01-1.05010E-01
 -1         6-7.35070E-01-7.35070E-01-1.71511E+00 2.72332E-07-1.04729E-01-1.05010E-01
 -1         7 3.15059E-01 3.15059E-01-1.08504E+00 2.72527E-07-1.04730E-01-1.05011E-01
 -1         8 3.15059E-01 3.15059E-01-1.08504E+00-2.73599E-07 1.05291E-01-1.05011E-01
 -1         9-1.61288E-02-1.29099E-02-3.50239E+01 9.05642E-12 1.34553E-02-2.48395E-11
 -1        10-4.92067E-03 2.13269E-03-3.50015E+01 1.91721E-03 7.41623E-03 3.05052E-03
 -1        11-1.36225E-03-1.83439E-02-3.50066E+01-1.43294E-02-4.87061E-03-1.38220E-03
 -1        12 1.17995E-02 2.34767E-02-3.50046E+01-1.34916E-11 5.60115E-03-1.19554E-11
 -1        13-4.92067E-03 2.13269E-03-3.50015E+01-1.91721E-03 7.41623E-03-3.05052E-03
 -1        14 1.56927E-02 2.65805E-02-3.49573E+01-9.05487E-12 2.43384E-02-2.48629E-11
 -1        15-5.11875E-03-5.07591E-02-3.49867E+01 1.34892E-11 7.61880E-03-1.19803E-11
 -1        16-1.36225E-03-1.83439E-02-3.50066E+01 1.43294E-02-4.87061E-03 1.38220E-03
 -3
    1PSTEP                         9           3           1          
  100CL  103 3.50000E-01          16                     0    3           1
 -4  CONTACT     6    1
 -5  COPEN       1    4    1    1
 -5  CSLIP1      1    4    2    2
 -5  CSLIP2      1    4    3    3
 -5  CPRESS      1    4    1    2
 -5  CSHEAR1     1    4    2    3
 -5  CSHEAR2     1    4    3    1
 -1         1 0.00000E+00 0.00000E+00 0.00000E+00 0.00000E+00 0.00000E+00 0.00000E+00
 -1         2 0.00000E+00 0.00000E+00 0.00000E+00 0.00000E+00 0.00000E+00 0.00000E+00
 -1         3 0.00000E+00 0.00000E+00 0.00000E+00 0.00000E+00 0.00000E+00 0.00000E+00
 -1         4 0.00000E+00 0.00000E+00 0.00000E+00 0.00000E+00 0.00000E+00 0.00000E+00
 -1         5 0.00000E+00 0.00000E+00 0.00000E+00 0.00000E+00 0.00000E+00 0.00000E+00
 -1         6 0.00000E+00 0.00000E+00 0.00000E+00 0.00000E+00 0.00000E+00 0.00000E+00
 -1         7 0.00000E+00 0.00000E+00 0.00000E+00 0.00000E+00 0.00000E+00 0.00000E+00
 -1         8 0.00000E+00 0.00000E+00 0.00000E+00 0.00000E+00 0.00000E+00 0.00000E+00
 -1         9-3.50015E-06-3.89169E-15 1.23618E-05 3.50015E+01-3.89168E-12 1.23618E-02
 -1        10-3.50015E-06 5.34425E-06 7.01536E-06 3.50015E+01 5.34425E-03 7.01536E-03
 -1        11 0.00000E+00 0.00000E+00 0.00000E+00 0.00000E+00 0.00000E+00 0.00000E+00
 -1        12 0.00000E+00 0.00000E+00 0.00000E+00 0.00000E+00 0.00000E+00 0.00000E+00
 -1        13-3.50015E-06-5.34425E-06 7.01536E-06 3.50015E+01-5.34425E-03 7.01536E-03
 -1        14-3.50015E-06-3.91279E-15 1.66347E-06 3.50015E+01-3.91279E-12 1.66347E-03
 -1        15 0.00000E+00 0.00000E+00 0.00000E+00 0.00000E+00 0.00000E+00 0.00000E+00
 -1        16 0.00000E+00 0.00000E+00 0.00000E+00 0.00000E+00 0.00000E+00 0.00000E+00
 -3
    1PSTEP                        10           4           1          
  100CL  104 5.75000E-01          16                     0    4           1
 -4  DISP        4    1
 -5  D1          1    2    1    0
 -5  D2          1    2    2    0
 -5  D3          1    2    3    0
 -5  ALL         1    2    0    0    1ALL
 -1         1 0.00000E+00 0.00000E+00 0.00000E+00
 -1         2 0.00000E+00 0.00000E+00 0.00000E+00
 -1         3 2.13612E-06-2.13041E-06-9.96844E-06
 -1         4 2.13612E-06 2.14183E-06-9.96844E-06
 -1         5 0.00000E+00 0.00000E+00 0.00000E+00
 -1         6 0.00000E+00 0.00000E+00 0.00000E+00
 -1         7-2.13612E-06-2.13041E-06-9.96844E-06
 -1         8-2.13612E-06 2.14183E-06-9.96844E-06
 -1         9 8.66899E-17 2.31535E-05-1.95421E-05
 -1        10 1.16162E-05 1.15327E-05-1.95421E-05
 -1        11 1.16286E-05 1.15629E-05-7.43389E-05
 -1        12 0.00000E+00 2.32083E-05-7.43615E-05
 -1        13-1.16162E-05 1.15327E-05-1.95421E-05
 -1        14 8.67949E-17-9.91249E-08-1.95421E-05
 -1        15 0.00000E+00 0.00000E+00-7.42907E-05
 -1        16-1.16286E-05 1.15629E-05-7.43389E-05
 -3
    1PSTEP                        11           4           1          
  100CL  104 5.75000E-01          16                     0    4           1
 -4  STRESS      6    1
 -5  SXX         1    4    1    1
 -5  SYY         1    4    2    2
 -5  SZZ         1    4    3    3
 -5  SXY         1    4    1    2
 -5  SYZ         1    4    2    3
 -5  SZX         1    4    3    1
 -1         1-1.20770E+00-1.20770E+00-2.81786E+00 7.39055E-07 1.72987E-01 1.72526E-01
 -1         2-1.20770E+00-1.20770E+00-2.81786E+00-7.35116E-07-1.72065E-01 1.72526E-01
 -1         3 5.17635E-01 5.17635E-01-1.78267E+00-7.35620E-07-1.72067E-01 1.72528E-01
 -1         4 5.17635E-01 5.17635E-01-1.78267E+00 7.38561E-07 1.72989E-01 1.72528E-01
 -1         5-1.20770E+00-1.20770E+00-2.81786E+00-7.39055E-07 1.72987E-01-1.72526E-01
 -1         6-1.20770E+00-1.20770E+00-2.81786E+00 7.35116E-07-1.72065E-01-1.72526E-01
 -1         7 5.17635E-01 5.17635E-01-1.78267E+00 7.35624E-07-1.72067E-01-1.72528E-01
 -1         8 5.17635E-01 5.17635E-01-1.78267E+00-7.38556E-07 1.72989E-01-1.72528E-01
 -1         9-2.65195E-02-2.12249E-02-5.75392E+01 1.25490E-11 2.21147E-02-3.49849E-11
 -1        10-8.08873E-03 3.50935E-03-5.75025E+01 3.15175E-03 1.21900E-02 5.01315E-03
 -1        11-2.24092E-03-3.01611E-02-5.75109E+01-2.35606E-02-8.01230E-03-2.27428E-03
 -1        12 1.93969E-02 3.85981E-02-5.75075E+01-1.89954E-11 9.19977E-03-1.67937E-11
 -1        13-8.08873E-03 3.50935E-03-5.75025E+01-3.15175E-03 1.21900E-02-5.01315E-03
 -1        14 2.58065E-02 4.37081E-02-5.74298E+01-1.25489E-11 4.00020E-02-3.50281E-11
 -1        15-8.41428E-03-8.34557E-02-5.74782E+01 1.89997E-11 1.25122E-02-1.68299E-11
 -1        16-2.24092E-03-3.01611E-02-5.75109E+01 2.35606E-02-8.01230E-03 2.27428E-03
 -3
    1PSTEP                        12           4           1          
  100CL  104 5.75000E-01          16                     0    4           1
 -4  CONTACT     6    1
 -5  COPEN       1    4    1    1
 -5  CSLIP1      1    4    2    2
 -5  CSLIP2      1    4    3    3
 -5  CPRESS      1    4    1    2
 -5  CSHEAR1     1    4    2    3
 -5  CSHEAR2     1    4    3    1
 -1         1 0.00000E+00 0.00000E+00 0.00000E+00 0.00000E+00 0.00000E+00 0.00000E+00
 -1         2 0.00000E+00 0.00000E+00 0.00000E+00 0.00000E+00 0.00000E+00 0.00000E+00
 -1         3 0.00000E+00 0.00000E+00 0.00000E+00 0.00000E+00 0.00000E+00 0.00000E+00
 -1         4 0.00000E+00 0.00000E+00 0.00000E+00 0.00000E+00 0.00000E+00 0.00000E+00
 -1         5 0.00000E+00 0.00000E+00 0.00000E+00 0.00000E+00 0.00000E+00 0.00000E+00
 -1         6 0.00000E+00 0.00000E+00 0.00000E+00 0.00000E+00 0.00000E+00 0.00000E+00
 -1         7 0.00000E+00 0.00000E+00 0.00000E+00 0.00000E+00 0.00000E+00 0.00000E+00
 -1         8 0.00000E+00 0.00000E+00 0.00000E+00 0.00000E+00 0.00000E+00 0.00000E+00
 -1         9-5.75037E-06-4.88612E-15 2.03118E-05 5.75037E+01-4.88611E-12 2.03118E-02
 -1        10-5.75037E-06 8.78123E-06 1.15270E-05 5.75037E+01 8.78123E-03 1.15270E-02
 -1        11 0.00000E+00 0.00000E+00 0.00000E+00 0.00000E+00 0.00000E+00 0.00000E+00
 -1        12 0.00000E+00 0.00000E+00 0.00000E+00 0.00000E+00 0.00000E+00 0.00000E+00
 -1        13-5.75037E-06-8.78123E-06 1.15270E-05 5.75037E+01-8.78123E-03 1.15270E-02
 -1        14-5.75037E-06-4.91595E-15 2.73316E-06 5.75037E+01-4.91595E-12 2.73316E-03
 -1        15 0.00000E+00 0.00000E+00 0.00000E+00 0.00000E+00 0.00000E+00 0.00000E+00
 -1        16 0.00000E+00 0.00000E+00 0.00000E+00 0.00000E+00 0.00000E+00 0.00000E+00
 -3
    1PSTEP                        13           5           1          
  100CL  105 9.12500E-01          16                     0    5           1
 -4  DISP        4    1
 -5  D1          1    2    1    0
 -5  D2          1    2    2    0
 -5  D3          1    2    3    0
 -5  ALL         1    2    0    0    1ALL
 -1         1 0.00000E+00 0.00000E+00 0.00000E+00
 -1         2 0.00000E+00 0.00000E+00 0.00000E+00
 -1         3 3.39027E-06-3.38121E-06-1.58212E-05
 -1         4 3.39027E-06 3.39934E-06-1.58212E-05
 -1         5 0.00000E+00 0.00000E+00 0.00000E+00
 -1         6 0.00000E+00 0.00000E+00 0.00000E+00
 -1         7-3.39027E-06-3.38121E-06-1.58212E-05
 -1         8-3.39027E-06 3.39934E-06-1.58212E-05
 -1         9 1.45657E-16 3.67521E-05-2.69181E-05
 -1        10 1.84386E-05 1.83061E-05-2.69181E-05
 -1        11 1.84584E-05 1.83541E-05-1.13908E-04
 -1        12 0.00000E+00 3.68391E-05-1.13943E-04
 -1        13-1.84386E-05 1.83061E-05-2.69181E-05
 -1        14 1.45797E-16-1.57476E-07-2.69181E-05
 -1        15 0.00000E+00 0.00000E+00-1.13831E-04
 -1        16-1.84584E-05 1.83541E-05-1.13908E-04
 -3
    1PSTEP                        14           5           1          
  100CL  105 9.12500E-01          16                     0    5           1
 -4  STRESS      6    1
 -5  SXX         1    4    1    1
 -5  SYY         1    4    2    2
 -5  SZZ         1    4    3    3
 -5  SXY         1    4    1    2
 -5  SYZ         1    4    2    3
 -5  SZX         1    4    3    1
 -1         1-1.91678E+00-1.91678E+00-4.47226E+00 1.86163E-06 2.74545E-01 2.73813E-01
 -1         2-1.91678E+00-1.91678E+00-4.47226E+00-1.85171E-06-2.73081E-01 2.73813E-01
 -1         3 8.21555E-01 8.21555E-01-2.82927E+00-1.85296E-06-2.73087E-01 2.73819E-01
 -1         4 8.21555E-01 8.21555E-01-2.82927E+00 1.86042E-06 2.74550E-01 2.73819E-01
 -1         5-1.91678E+00-1.91678E+00-4.47226E+00-1.86163E-06 2.74545E-01-2.73813E-01
 -1         6-1.91678E+00-1.91678E+00-4.47226E+00 1.85171E-06-2.73081E-01-2.73813E-01
 -1         7 8.21555E-01 8.21555E-01-2.82927E+00 1.85297E-06-2.73087E-01-2.73819E-01
 -1         8 8.21555E-01 8.21555E-01-2.82927E+00-1.86041E-06 2.74550E-01-2.73819E-01
 -1         9-4.21381E-02-3.37207E-02-9.13123E+01 2.60305E-11 3.51178E-02-5.87613E-11
 -1        10-1.28478E-02 5.58267E-03-9.12540E+01 5.00655E-03 1.93598E-02 7.95940E-03
 -1        11-3.56323E-03-4.79233E-02-9.12673E+01-3.74363E-02-1.27404E-02-3.61760E-03
 -1        12 3.08107E-02 6.13233E-02-9.12619E+01-3.24001E-11 1.45946E-02-2.90664E-11
 -1        13-1.28478E-02 5.58267E-03-9.12540E+01-5.00655E-03 1.93598E-02-7.95940E-03
 -1        14 4.10149E-02 6.94585E-02-9.11385E+01-2.60239E-11 6.35232E-02-5.88142E-11
 -1        15-1.33648E-02-1.32597E-01-9.12154E+01 3.24024E-11 1.98459E-02-2.91315E-11
 -1        16-3.56323E-03-4.79233E-02-9.12673E+01 3.74363E-02-1.27404E-02 3.61760E-03
 -3
    1PSTEP                        15           5           1          
  100CL  105 9.12500E-01          16                     0    5           1
 -4  CONTACT     6    1
 -5  COPEN       1    4    1    1
 -5  CSLIP1      1    4    2    2
 -5  CSLIP2      1    4    3    3
 -5  CPRESS      1    4    1    2
 -5  CSHEAR1     1    4    2    3
 -5  CSHEAR2     1    4    3    1
 -1         1 0.00000E+00 0.00000E+00 0.00000E+00 0.00000E+00 0.00000E+00 0.00000E+00
 -1         2 0.00000E+00 0.00000E+00 0.00000E+00 0.00000E+00 0.00000E+00 0.00000E+00
 -1         3 0.00000E+00 0.00000E+00 0.00000E+00 0.00000E+00 0.00000E+00 0.00000E+00
 -1         4 0.00000E+00 0.00000E+00 0.00000E+00 0.00000E+00 0.00000E+00 0.00000E+00
 -1         5 0.00000E+00 0.00000E+00 0.00000E+00 0.00000E+00 0.00000E+00 0.00000E+00
 -1         6 0.00000E+00 0.00000E+00 0.00000E+00 0.00000E+00 0.00000E+00 0.00000E+00
 -1         7 0.00000E+00 0.00000E+00 0.00000E+00 0.00000E+00 0.00000E+00 0.00000E+00
 -1         8 0.00000E+00 0.00000E+00 0.00000E+00 0.00000E+00 0.00000E+00 0.00000E+00
 -1         9-9.12588E-06-4.03238E-14 3.22414E-05 9.12588E+01-4.03238E-11 3.22414E-02
 -1        10-9.12588E-06 1.39388E-05 1.82969E-05 9.12588E+01 1.39388E-02 1.82969E-02
 -1        11 0.00000E+00 0.00000E+00 0.00000E+00 0.00000E+00 0.00000E+00 0.00000E+00
 -1        12 0.00000E+00 0.00000E+00 0.00000E+00 0.00000E+00 0.00000E+00 0.00000E+00
 -1        13-9.12588E-06-1.39388E-05 1.82969E-05 9.12588E+01-1.39388E-02 1.82969E-02
 -1        14-9.12588E-06-4.03710E-14 4.33819E-06 9.12588E+01-4.03710E-11 4.33819E-03
 -1        15 0.00000E+00 0.00000E+00 0.00000E+00 0.00000E+00 0.00000E+00 0.00000E+00
 -1        16 0.00000E+00 0.00000E+00 0.00000E+00 0.00000E+00 0.00000E+00 0.00000E+00
 -3
    1PSTEP                        16           6           1          
  100CL  106 1.000000000          16                     0    6           1
 -4  DISP        4    1
 -5  D1          1    2    1    0
 -5  D2          1    2    2    0
 -5  D3          1    2    3    0
 -5  ALL         1    2    0    0    1ALL
 -1         1 0.00000E+00 0.00000E+00 0.00000E+00
 -1         2 0.00000E+00 0.00000E+00 0.00000E+00
 -1         3 3.71547E-06-3.70554E-06-1.73387E-05
 -1         4 3.71547E-06 3.72540E-06-1.73387E-05
 -1         5 0.00000E+00 0.00000E+00 0.00000E+00
 -1         6 0.00000E+00 0.00000E+00 0.00000E+00
 -1         7-3.71547E-06-3.70554E-06-1.73387E-05
 -1         8-3.71547E-06 3.72540E-06-1.73387E-05
 -1         9 1.79215E-16 4.02786E-05-2.73390E-05
 -1        10 2.02080E-05 2.00626E-05-2.73390E-05
 -1        11 2.02296E-05 2.01152E-05-1.22678E-04
 -1        12 0.00000E+00 4.03741E-05-1.22718E-04
 -1        13-2.02080E-05 2.00626E-05-2.73390E-05
 -1        14 1.79429E-16-1.72638E-07-2.73390E-05
 -1        15 0.00000E+00 0.00000E+00-1.22594E-04
 -1        16-2.02296E-05 2.01152E-05-1.22678E-04
 -3
    1PSTEP                        17           6           1          
  100CL  106 1.000000000          16                     0    6           1
 -4  STRESS      6    1
 -5  SXX         1    4    1    1
 -5  SYY         1    4    2    2
 -5  SZZ         1    4    3    3
 -5  SXY         1    4    1    2
 -5  SYZ         1    4    2    3
 -5  SZX         1    4    3    1
 -1         1-2.10064E+00-2.10064E+00-4.90123E+00 2.23589E-06 3.00877E-01 3.00075E-01
 -1         2-2.10064E+00-2.10064E+00-4.90123E+00-2.22397E-06-2.99273E-01 3.00075E-01
 -1         3 9.00360E-01 9.00361E-01-3.10064E+00-2.22509E-06-2.99280E-01 3.00082E-01
 -1         4 9.00360E-01 9.00361E-01-3.10064E+00 2.23482E-06 3.00884E-01 3.00082E-01
 -1         5-2.10064E+00-2.10064E+00-4.90123E+00-2.23589E-06 3.00877E-01-3.00075E-01
 -1         6-2.10064E+00-2.10064E+00-4.90123E+00 2.22397E-06-2.99273E-01-3.00075E-01
 -1         7 9.00360E-01 9.00361E-01-3.10064E+00 2.22510E-06-2.99280E-01-3.00082E-01
 -1         8 9.00360E-01 9.00361E-01-3.10064E+00-2.23481E-06 3.00884E-01-3.00082E-01
 -1         9-4.61973E-02-3.69677E-02-1.00068E+02 2.90420E-11 3.84948E-02-7.22908E-11
 -1        10-1.40841E-02 6.12230E-03-1.00004E+02 5.48844E-03 2.12221E-02 8.72437E-03
 -1        11-3.90720E-03-5.25395E-02-1.00019E+02-4.10425E-02-1.39704E-02-3.96719E-03
 -1        12 3.37760E-02 6.72286E-02-1.00013E+02-3.94215E-11 1.59939E-02-3.51633E-11
 -1        13-1.40841E-02 6.12230E-03-1.00004E+02-5.48844E-03 2.12221E-02-8.72437E-03
 -1        14 4.49686E-02 7.61520E-02-9.98778E+01-2.90396E-11 6.96317E-02-7.23789E-11
 -1        15-1.46508E-02-1.45368E-01-9.99621E+01 3.94426E-11 2.17476E-02-3.52382E-11
 -1        16-3.90720E-03-5.25395E-02-1.00019E+02 4.10425E-02-1.39704E-02 3.96719E-03
 -3
    1PSTEP                        18           6           1          
  100CL  106 1.000000000          16                     0    6           1
 -4  CONTACT     6    1
 -5  COPEN       1    4    1    1
 -5  CSLIP1      1    4    2    2
 -5  CSLIP2      1    4    3    3
 -5  CPRESS      1    4    1    2
 -5  CSHEAR1     1    4    2    3
 -5  CSHEAR2     1    4    3    1
 -1         1 0.00000E+00 0.00000E+00 0.00000E+00 0.00000E+00 0.00000E+00 0.00000E+00
 -1         2 0.00000E+00 0.00000E+00 0.00000E+00 0.00000E+00 0.00000E+00 0.00000E+00
 -1         3 0.00000E+00 0.00000E+00 0.00000E+00 0.00000E+00 0.00000E+00 0.00000E+00
 -1         4 0.00000E+00 0.00000E+00 0.00000E+00 0.00000E+00 0.00000E+00 0.00000E+00
 -1         5 0.00000E+00 0.00000E+00 0.00000E+00 0.00000E+00 0.00000E+00 0.00000E+00
 -1         6 0.00000E+00 0.00000E+00 0.00000E+00 0.00000E+00 0.00000E+00 0.00000E+00
 -1         7 0.00000E+00 0.00000E+00 0.00000E+00 0.00000E+00 0.00000E+00 0.00000E+00
 -1         8 0.00000E+00 0.00000E+00 0.00000E+00 0.00000E+00 0.00000E+00 0.00000E+00
 -1         9-1.00002E-05-2.89691E-14 3.53351E-05 1.00002E+02-2.89691E-11 3.53351E-02
 -1        10-1.00002E-05 1.52763E-05 2.00525E-05 1.00002E+02 1.52763E-02 2.00525E-02
 -1        11 0.00000E+00 0.00000E+00 0.00000E+00 0.00000E+00 0.00000E+00 0.00000E+00
 -1        12 0.00000E+00 0.00000E+00 0.00000E+00 0.00000E+00 0.00000E+00 0.00000E+00
 -1        13-1.00002E-05-1.52763E-05 2.00525E-05 1.00002E+02-1.52763E-02 2.00525E-02
 -1        14-1.00002E-05-2.90289E-14 4.75437E-06 1.00002E+02-2.90289E-11 4.75437E-03
 -1        15 0.00000E+00 0.00000E+00 0.00000E+00 0.00000E+00 0.00000E+00 0.00000E+00
 -1        16 0.00000E+00 0.00000E+00 0.00000E+00 0.00000E+00 0.00000E+00 0.00000E+00
 -3
    1PSTEP                        19           1           2          
  100CL  107 1.010000000          16                     0    7           1
 -4  DISP        4    1
 -5  D1          1    2    1    0
 -5  D2          1    2    2    0