    1C
    1UUSER                                                              
    1UDATE              15.december.2018                                
    1UTIME              15:51:20                                        
    1UHOST                                                              
    1UPGM               CalculiX                                        
    1UVERSION           Version 2.15                             
    1UCOMPILETIME       Sa 15. Dez 14:32:01 CET 2018                    
    1UDIR                                                               
    1UDBN                                                               
    1UMAT    1EL                                                        
    1UMAT    2GAP                                                       
    2C                            16                                     1
 -1         1 1.00000E+00 1.00000E+00-1.49012E-08
 -1         2 1.00000E+00 0.00000E+00-1.49012E-08
 -1         3 1.00000E+00 0.00000E+00 1.00000E+00
 -1         4 1.00000E+00 1.00000E+00 1.00000E+00
 -1         5-7.45058E-09 1.00000E+00-1.49012E-08
 -1         6-7.45058E-09 0.00000E+00-1.49012E-08
 -1         7-7.45058E-09 0.00000E+00 1.00000E+00
 -1         8-7.45058E-09 1.00000E+00 1.00000E+00
 -1         9 1.00000E+00 1.00000E+00 1.00000E+00
 -1        10 1.00000E+00 0.00000E+00 1.00000E+00
 -1        11 1.00000E+00 0.00000E+00 1.20000E+00
 -1        12 1.00000E+00 1.00000E+00 1.20000E+00
 -1        13-7.45058E-09 1.00000E+00 1.00000E+00
 -1        14-7.45058E-09 0.00000E+00 1.00000E+00
 -1        15-7.45058E-09 0.00000E+00 1.20000E+00
 -1        16-7.45058E-09 1.00000E+00 1.20000E+00
 -3
    3C                             6                                     1
 -1         1    1    0    1
 -2         1         2         3         4         5         6         7         8
 -1         2    1    0    1
 -2         9        10        11        12        13        14        15        16
 -1         3   11    0    2
 -2         4         9
 -1         4   11    0    2
 -2         3        10
 -1         5   11    0    2
 -2         7        14
 -1         6   11    0    2
 -2         8        13
 -3
    1PSTEP                         1           1           1          
  100CL  101 1.000000000          16                     0    1           1
 -4  DISP        4    1
 -5  D1          1    2    1    0
 -5  D2          1    2    2    0
 -5  D3          1    2    3    0
 -5  ALL         1    2    0    0    1ALL
 -1         1 0.00000E+00 0.00000E+00 0.00000E+00
 -1         2 0.00000E+00 0.00000E+00 0.00000E+00
 -1         3 1.40918E-21-2.20958E-22-4.76194E-06
 -1         4 1.26687E-21-2.20030E-22-4.76194E-06
 -1         5 0.00000E+00 0.00000E+00 0.00000E+00
 -1         6 0.00000E+00 0.00000E+00 0.00000E+00
 -1         7 1.37758E-21-2.30885E-22-4.76194E-06
 -1         8 1.35905E-21-2.32673E-22-4.76194E-06
 -1         9-1.10941E-21-1.09460E-22-8.06107E-06
 -1        10 4.15362E-23-1.09964E-22-8.06107E-06
 -1        11 0.00000E+00 0.00000E+00-9.01346E-06
 -1        12 0.00000E+00 0.00000E+00-9.01346E-06
 -1        13-9.81063E-22 6.14220E-22-8.06107E-06
 -1        14-5.69100E-22 6.20340E-22-8.06107E-06
 -1        15 0.00000E+00 0.00000E+00-9.01346E-06
 -1        16 0.00000E+00 0.00000E+00-9.01346E-06
 -3
    1PSTEP                         2           1           1          
  100CL  101 1.000000000          16                     0    1           1
 -4  FORC        4    1
 -5  F1          1    2    1    0
 -5  F2          1    2    2    0
 -5  F3          1    2    3    0
 -5  ALL         1    2    0    0    1ALL
 -1         1 1.74019E-18-1.93934E-19 2.50000E-01
 -1         2 4.86098E-18-2.02447E-19 2.50000E-01
 -1         3-3.01194E-18-1.62534E-18 2.78275E-06
 -1         4-6.76955E-18-1.60773E-18 2.78275E-06
 -1         5 7.37136E-19 5.10642E-18 2.50000E-01
 -1         6 3.44260E-18 5.13751E-18 2.50000E-01
 -1         7-1.66219E-18-3.26456E-18 2.78275E-06
 -1         8 6.62769E-19-3.34992E-18 2.78275E-06
 -1         9-2.13896E-17-5.89029E-18-2.78275E-06
 -1        10-1.11677E-17-5.79958E-18-2.78275E-06
 -1        11 2.35589E-17-2.10765E-18-2.50000E-01
 -1        12 1.40625E-17-2.04115E-18-2.50000E-01
 -1        13-2.85217E-17-1.30603E-18-2.78275E-06
 -1        14-3.30913E-17-1.07237E-18-2.78275E-06
 -1        15 3.65387E-17 9.03857E-18-2.50000E-01
 -1        16 2.00101E-17 9.17849E-18-2.50000E-01
 -3
 9999
