
 displacements (vx,vy,vz) for set NALL and time  0.1000000E+01

         1 -4.995342E-04  0.000000E+00  0.000000E+00
         2  4.995342E-04  4.400000E-01  4.975653E+02
         3 -4.995342E-04  0.000000E+00  0.000000E+00
         4  4.995342E-04  4.433085E-01  4.992370E+02
         5 -4.995342E-04  0.000000E+00  0.000000E+00
         6  4.995342E-04  4.465308E-01  5.007465E+02
         7 -4.995342E-04  0.000000E+00  0.000000E+00
         8  4.995342E-04  4.496755E-01  5.021221E+02
         9 -4.995342E-04  0.000000E+00  0.000000E+00
        10  4.995342E-04  4.527497E-01  5.033842E+02
        11 -4.995342E-04  0.000000E+00  0.000000E+00
        12  4.995342E-04  4.557596E-01  5.045494E+02
        13 -4.995342E-04  0.000000E+00  0.000000E+00
        14  4.995342E-04  4.587103E-01  5.056311E+02
        15 -4.995342E-04  0.000000E+00  0.000000E+00
        16  4.995342E-04  4.616060E-01  5.066397E+02
        17 -4.995342E-04  0.000000E+00  0.000000E+00
        18  4.995342E-04  4.644507E-01  5.075841E+02
        19 -4.995342E-04  0.000000E+00  0.000000E+00
        20  4.995342E-04  4.672477E-01  5.084715E+02
        21 -4.995342E-04  0.000000E+00  0.000000E+00
        22  4.995342E-04  4.700000E-01  5.093079E+02
        23 -4.995342E-04  0.000000E+00  0.000000E+00

 temperatures for set NALL and time  0.1000000E+01

         1  0.000000E+00
         2  5.500000E+02
         3  0.000000E+00
         4  5.500000E+02
         5  0.000000E+00
         6  5.500000E+02
         7  0.000000E+00
         8  5.500000E+02
         9  0.000000E+00
        10  5.500000E+02
        11  0.000000E+00
        12  5.500000E+02
        13  0.000000E+00
        14  5.500000E+02
        15  0.000000E+00
        16  5.500000E+02
        17  0.000000E+00
        18  5.500000E+02
        19  0.000000E+00
        20  5.500000E+02
        21  0.000000E+00
        22  5.500000E+02
        23  0.000000E+00
