
 displacements (vx,vy,vz) for set NALL and time  0.1000000E+01

         1  4.448839E-04  0.000000E+00  0.000000E+00
         2  4.448839E-04  4.700000E-01  5.214935E+02
         3  4.448839E-04  0.000000E+00  0.000000E+00
         4  4.448839E-04  4.678610E-01  5.211248E+02
         5  4.448839E-04  0.000000E+00  0.000000E+00
         6  4.448839E-04  4.657029E-01  5.207441E+02
         7  4.448839E-04  0.000000E+00  0.000000E+00
         8  4.448839E-04  4.635248E-01  5.203508E+02
         9  4.448839E-04  0.000000E+00  0.000000E+00
        10  4.448839E-04  4.613263E-01  5.199439E+02
        11  4.448839E-04  0.000000E+00  0.000000E+00
        12  4.448839E-04  4.591066E-01  5.195229E+02
        13  4.448839E-04  0.000000E+00  0.000000E+00
        14  4.448839E-04  4.568650E-01  5.190867E+02
        15  4.448839E-04  0.000000E+00  0.000000E+00
        16  4.448839E-04  4.546006E-01  5.186344E+02
        17  4.448839E-04  0.000000E+00  0.000000E+00
        18  4.448839E-04  4.523125E-01  5.181650E+02
        19  4.448839E-04  0.000000E+00  0.000000E+00
        20  4.448839E-04  4.500000E-01  5.176772E+02
        21  4.448839E-04  0.000000E+00  0.000000E+00

 temperatures for set NALL and time  0.1000000E+01

         1  0.000000E+00
         2  5.500000E+02
         3  0.000000E+00
         4  5.500000E+02
         5  0.000000E+00
         6  5.500000E+02
         7  0.000000E+00
         8  5.500000E+02
         9  0.000000E+00
        10  5.500000E+02
        11  0.000000E+00
        12  5.500000E+02
        13  0.000000E+00
        14  5.500000E+02
        15  0.000000E+00
        16  5.500000E+02
        17  0.000000E+00
        18  5.500000E+02
        19  0.000000E+00
        20  5.500000E+02
        21  0.000000E+00
