
 displacements (vx,vy,vz) for set NOUT and time  0.1000000E+01

         1  1.103640E-06 -1.435801E-06  0.000000E+00
         4  1.103640E-06 -1.435801E-06  0.000000E+00
         5  1.097193E-06 -1.335108E-06  0.000000E+00
         8  1.097193E-06 -1.335108E-06  0.000000E+00
         9  1.083647E-06 -1.253051E-06  0.000000E+00
        12  1.083647E-06 -1.253051E-06  0.000000E+00
        13  1.068662E-06 -1.181399E-06  0.000000E+00
        16  1.068662E-06 -1.181399E-06  0.000000E+00
        17  1.053232E-06 -1.116870E-06  0.000000E+00
        20  1.053232E-06 -1.116870E-06  0.000000E+00
        21  1.037577E-06 -1.057697E-06  0.000000E+00
        24  1.037577E-06 -1.057697E-06  0.000000E+00
        25  1.021766E-06 -1.002846E-06  0.000000E+00
        28  1.021766E-06 -1.002846E-06  0.000000E+00
        29  1.005835E-06 -9.516397E-07  0.000000E+00
        32  1.005835E-06 -9.516397E-07  0.000000E+00
        33  9.898039E-07 -9.036015E-07  0.000000E+00
        36  9.898039E-07 -9.036015E-07  0.000000E+00
        37  9.736921E-07 -8.583799E-07  0.000000E+00
        40  9.736921E-07 -8.583799E-07  0.000000E+00
        41  9.575162E-07 -8.157055E-07  0.000000E+00
        44  9.575162E-07 -8.157055E-07  0.000000E+00
        45  9.412927E-07 -7.753655E-07  0.000000E+00
        48  9.412927E-07 -7.753655E-07  0.000000E+00
        49  9.250378E-07 -7.371871E-07  0.000000E+00
        52  9.250378E-07 -7.371871E-07  0.000000E+00
        53  9.087675E-07 -7.010279E-07  0.000000E+00
        56  9.087675E-07 -7.010279E-07  0.000000E+00
        57  8.924977E-07 -6.667676E-07  0.000000E+00
        60  8.924977E-07 -6.667676E-07  0.000000E+00
        61  8.762439E-07 -6.343036E-07  0.000000E+00
        64  8.762439E-07 -6.343036E-07  0.000000E+00
        65  8.600208E-07 -6.035468E-07  0.000000E+00
        68  8.600208E-07 -6.035468E-07  0.000000E+00
        69  8.438428E-07 -5.744195E-07  0.000000E+00
        72  8.438428E-07 -5.744195E-07  0.000000E+00
        73  8.277235E-07 -5.468527E-07  0.000000E+00
        76  8.277235E-07 -5.468527E-07  0.000000E+00
        77  8.116754E-07 -5.207853E-07  0.000000E+00
        80  8.116754E-07 -5.207853E-07  0.000000E+00
        81  7.957104E-07 -4.961624E-07  0.000000E+00
        84  7.957104E-07 -4.961624E-07  0.000000E+00
        85  7.798393E-07 -4.729347E-07  0.000000E+00
        88  7.798393E-07 -4.729347E-07  0.000000E+00
        89  7.640716E-07 -4.510580E-07  0.000000E+00
        92  7.640716E-07 -4.510580E-07  0.000000E+00
        93  7.484159E-07 -4.304926E-07  0.000000E+00
        96  7.484159E-07 -4.304926E-07  0.000000E+00
        97  7.328796E-07 -4.112029E-07  0.000000E+00
       100  7.328796E-07 -4.112029E-07  0.000000E+00
       101  7.174686E-07 -3.931573E-07  0.000000E+00
       104  7.174686E-07 -3.931573E-07  0.000000E+00
       105  7.021877E-07 -3.763283E-07  0.000000E+00
       108  7.021877E-07 -3.763283E-07  0.000000E+00
       109  6.870403E-07 -3.606922E-07  0.000000E+00
       112  6.870403E-07 -3.606922E-07  0.000000E+00
       113  6.720282E-07 -3.462294E-07  0.000000E+00
       116  6.720282E-07 -3.462294E-07  0.000000E+00
       117  6.571519E-07 -3.329249E-07  0.000000E+00
       120  6.571519E-07 -3.329249E-07  0.000000E+00
       121  6.424103E-07 -3.207680E-07  0.000000E+00
       124  6.424103E-07 -3.207680E-07  0.000000E+00
       125  6.278006E-07 -3.097536E-07  0.000000E+00
       128  6.278006E-07 -3.097536E-07  0.000000E+00
       129  6.133181E-07 -2.998823E-07  0.000000E+00
       132  6.133181E-07 -2.998823E-07  0.000000E+00
       133  5.989568E-07 -2.911616E-07  0.000000E+00
       136  5.989568E-07 -2.911616E-07  0.000000E+00
       137  5.847081E-07 -2.836072E-07  0.000000E+00
       140  5.847081E-07 -2.836072E-07  0.000000E+00
       141  5.705620E-07 -2.772448E-07  0.000000E+00
       144  5.705620E-07 -2.772448E-07  0.000000E+00
       145  5.565057E-07 -2.721124E-07  0.000000E+00
       148  5.565057E-07 -2.721124E-07  0.000000E+00
       149  5.425244E-07 -2.682639E-07  0.000000E+00
       152  5.425244E-07 -2.682639E-07  0.000000E+00
       153  5.286007E-07 -2.657750E-07  0.000000E+00
       156  5.286007E-07 -2.657750E-07  0.000000E+00
       157  5.147143E-07 -2.647520E-07  0.000000E+00
       160  5.147143E-07 -2.647520E-07  0.000000E+00
       161  5.008420E-07 -2.653482E-07  0.000000E+00
       164  5.008420E-07 -2.653482E-07  0.000000E+00
       165  4.869589E-07 -2.678028E-07  0.000000E+00
       168  4.869589E-07 -2.678028E-07  0.000000E+00
       169  4.730601E-07 -2.725094E-07  0.000000E+00
       172  4.730601E-07 -2.725094E-07  0.000000E+00
       173  4.593723E-07 -2.805609E-07  0.000000E+00
       176  4.593723E-07 -2.805609E-07  0.000000E+00
       177  4.464968E-07 -2.925637E-07  0.000000E+00
       180  4.464968E-07 -2.925637E-07  0.000000E+00
       181  4.346051E-07 -3.053156E-07  0.000000E+00
       184  4.346051E-07 -3.053156E-07  0.000000E+00
       185  4.233748E-07 -3.188806E-07  0.000000E+00
       188  4.233748E-07 -3.188806E-07  0.000000E+00
       189  4.126385E-07 -3.332720E-07  0.000000E+00
       192  4.126385E-07 -3.332720E-07  0.000000E+00
       193  4.023025E-07 -3.485422E-07  0.000000E+00
       196  4.023025E-07 -3.485422E-07  0.000000E+00
       197  3.923010E-07 -3.647634E-07  0.000000E+00
       200  3.923010E-07 -3.647634E-07  0.000000E+00
       201  3.825786E-07 -3.819785E-07  0.000000E+00
       204  3.825786E-07 -3.819785E-07  0.000000E+00
       205  3.730772E-07 -4.002493E-07  0.000000E+00
       208  3.730772E-07 -4.002493E-07  0.000000E+00
       209  3.637349E-07 -4.196630E-07  0.000000E+00
       212  3.637349E-07 -4.196630E-07  0.000000E+00
       213  3.544836E-07 -4.403370E-07  0.000000E+00
       216  3.544836E-07 -4.403370E-07  0.000000E+00
       217  3.452473E-07 -4.624391E-07  0.000000E+00
       220  3.452473E-07 -4.624391E-07  0.000000E+00
       221  3.359473E-07 -4.862281E-07  0.000000E+00
       224  3.359473E-07 -4.862281E-07  0.000000E+00
       225  3.264924E-07 -5.119935E-07  0.000000E+00
       228  3.264924E-07 -5.119935E-07  0.000000E+00
       229  3.167647E-07 -5.401892E-07  0.000000E+00
       232  3.167647E-07 -5.401892E-07  0.000000E+00
       233  3.066216E-07 -5.716081E-07  0.000000E+00
       236  3.066216E-07 -5.716081E-07  0.000000E+00
       237  2.960429E-07 -6.075813E-07  0.000000E+00
       240  2.960429E-07 -6.075813E-07  0.000000E+00
       241  2.853008E-07 -6.522366E-07  0.000000E+00
       244  2.853008E-07 -6.522366E-07  0.000000E+00
     17383  8.052557E-07  2.919392E-07  0.000000E+00
     17384  8.052557E-07  2.919392E-07  0.000000E+00
     17385  8.052524E-07  2.800237E-07  0.000000E+00
     17386  8.052524E-07  2.800237E-07  0.000000E+00
     17387  8.052345E-07  2.681018E-07  0.000000E+00
     17388  8.052345E-07  2.681018E-07  0.000000E+00
     17389  8.051950E-07  2.561953E-07  0.000000E+00
     17390  8.051950E-07  2.561953E-07  0.000000E+00
     17391  8.051363E-07  2.443280E-07  0.000000E+00
     17392  8.051363E-07  2.443280E-07  0.000000E+00
     17393  8.050668E-07  2.325202E-07  0.000000E+00
     17394  8.050668E-07  2.325202E-07  0.000000E+00
     17395  8.049975E-07  2.207877E-07  0.000000E+00
     17396  8.049975E-07  2.207877E-07  0.000000E+00
     17397  8.049411E-07  2.091421E-07  0.000000E+00
     17398  8.049411E-07  2.091421E-07  0.000000E+00
     17399  8.049109E-07  1.975916E-07  0.000000E+00
     17400  8.049109E-07  1.975916E-07  0.000000E+00
     17401  8.049200E-07  1.861411E-07  0.000000E+00
     17402  8.049200E-07  1.861411E-07  0.000000E+00
     17403  8.049814E-07  1.747930E-07  0.000000E+00
     17404  8.049814E-07  1.747930E-07  0.000000E+00
     17405  8.051076E-07  1.635474E-07  0.000000E+00
     17406  8.051076E-07  1.635474E-07  0.000000E+00
     17407  8.053106E-07  1.524023E-07  0.000000E+00
     17408  8.053106E-07  1.524023E-07  0.000000E+00
     17409  8.056015E-07  1.413542E-07  0.000000E+00
     17410  8.056015E-07  1.413542E-07  0.000000E+00
     17411  8.059911E-07  1.303980E-07  0.000000E+00
     17412  8.059911E-07  1.303980E-07  0.000000E+00
     17413  8.064890E-07  1.195273E-07  0.000000E+00
     17414  8.064890E-07  1.195273E-07  0.000000E+00
     17415  8.071045E-07  1.087349E-07  0.000000E+00
     17416  8.071045E-07  1.087349E-07  0.000000E+00
     17417  8.078458E-07  9.801245E-08  0.000000E+00
     17418  8.078458E-07  9.801245E-08  0.000000E+00
     17419  8.087206E-07  8.735078E-08  0.000000E+00
     17420  8.087206E-07  8.735078E-08  0.000000E+00
     17421  8.097358E-07  7.674010E-08  0.000000E+00
     17422  8.097358E-07  7.674010E-08  0.000000E+00
     17423  8.108976E-07  6.617005E-08  0.000000E+00
     17424  8.108976E-07  6.617005E-08  0.000000E+00
     17425  8.122113E-07  5.562973E-08  0.000000E+00
     17426  8.122113E-07  5.562973E-08  0.000000E+00
     17427  8.136816E-07  4.510787E-08  0.000000E+00
     17428  8.136816E-07  4.510787E-08  0.000000E+00
     17429  8.153126E-07  3.459285E-08  0.000000E+00
     17430  8.153126E-07  3.459285E-08  0.000000E+00
     17431  8.171075E-07  2.407282E-08  0.000000E+00
     17432  8.171075E-07  2.407282E-08  0.000000E+00
     17433  8.190688E-07  1.353576E-08  0.000000E+00
     17434  8.190688E-07  1.353576E-08  0.000000E+00
     17435  8.211985E-07  2.969545E-09  0.000000E+00
     17436  8.211985E-07  2.969545E-09  0.000000E+00
     17437  8.234975E-07 -7.637971E-09  0.000000E+00
     17438  8.234975E-07 -7.637971E-09  0.000000E+00
     17439  8.259663E-07 -1.829888E-08  0.000000E+00
     17440  8.259663E-07 -1.829888E-08  0.000000E+00
     17441  8.286046E-07 -2.902512E-08  0.000000E+00
     17442  8.286046E-07 -2.902512E-08  0.000000E+00
     17443  8.314113E-07 -3.982843E-08  0.000000E+00
     17444  8.314113E-07 -3.982843E-08  0.000000E+00
     17445  8.343845E-07 -5.072021E-08  0.000000E+00
     17446  8.343845E-07 -5.072021E-08  0.000000E+00
     17447  8.375217E-07 -6.171145E-08  0.000000E+00
     17448  8.375217E-07 -6.171145E-08  0.000000E+00
     17449  8.408196E-07 -7.281256E-08  0.000000E+00
     17450  8.408196E-07 -7.281256E-08  0.000000E+00
     17451  8.442739E-07 -8.403332E-08  0.000000E+00
     17452  8.442739E-07 -8.403332E-08  0.000000E+00
     17453  8.478799E-07 -9.538261E-08  0.000000E+00
     17454  8.478799E-07 -9.538261E-08  0.000000E+00
     17455  8.516316E-07 -1.068683E-07  0.000000E+00
     17456  8.516316E-07 -1.068683E-07  0.000000E+00
     17457  8.555225E-07 -1.184970E-07  0.000000E+00
     17458  8.555225E-07 -1.184970E-07  0.000000E+00
     17459  8.595452E-07 -1.302737E-07  0.000000E+00
     17460  8.595452E-07 -1.302737E-07  0.000000E+00
     17461  8.636912E-07 -1.422016E-07  0.000000E+00
     17462  8.636912E-07 -1.422016E-07  0.000000E+00
     17463  8.679512E-07 -1.542815E-07  0.000000E+00
     17464  8.679512E-07 -1.542815E-07  0.000000E+00
     17465  8.723150E-07 -1.665111E-07  0.000000E+00
     17466  8.723150E-07 -1.665111E-07  0.000000E+00
     17467  8.767712E-07 -1.788844E-07  0.000000E+00
     17468  8.767712E-07 -1.788844E-07  0.000000E+00
     17469  8.813075E-07 -1.913905E-07  0.000000E+00
     17470  8.813075E-07 -1.913905E-07  0.000000E+00
     17471  8.859105E-07 -2.040120E-07  0.000000E+00
     17472  8.859105E-07 -2.040120E-07  0.000000E+00
     17473  8.905657E-07 -2.167223E-07  0.000000E+00
     17474  8.905657E-07 -2.167223E-07  0.000000E+00
     17475  8.952573E-07 -2.294813E-07  0.000000E+00
     17476  8.952573E-07 -2.294813E-07  0.000000E+00
     17477  8.999695E-07 -2.422282E-07  0.000000E+00
     17478  8.999695E-07 -2.422282E-07  0.000000E+00
     17479  9.046883E-07 -2.548652E-07  0.000000E+00
     17480  9.046883E-07 -2.548652E-07  0.000000E+00
     17481  9.094167E-07 -2.672256E-07  0.000000E+00
     17482  9.094167E-07 -2.672256E-07  0.000000E+00
     17483  9.142062E-07 -2.788880E-07  0.000000E+00
     17484  9.142062E-07 -2.788880E-07  0.000000E+00
     17485  9.190822E-07 -2.893071E-07  0.000000E+00
     17486  9.190822E-07 -2.893071E-07  0.000000E+00
     17487  9.240583E-07 -3.000872E-07  0.000000E+00
     17488  9.240583E-07 -3.000872E-07  0.000000E+00
     17489  9.291328E-07 -3.114535E-07  0.000000E+00
     17490  9.291328E-07 -3.114535E-07  0.000000E+00
     17491  9.342450E-07 -3.234111E-07  0.000000E+00
     17492  9.342450E-07 -3.234111E-07  0.000000E+00
     17493  9.393465E-07 -3.359830E-07  0.000000E+00
     17494  9.393465E-07 -3.359830E-07  0.000000E+00
     17495  9.443965E-07 -3.492072E-07  0.000000E+00
     17496  9.443965E-07 -3.492072E-07  0.000000E+00
     17497  9.493568E-07 -3.631339E-07  0.000000E+00
     17498  9.493568E-07 -3.631339E-07  0.000000E+00
     17499  9.541887E-07 -3.777887E-07  0.000000E+00
     17500  9.541887E-07 -3.777887E-07  0.000000E+00
     17501  9.588518E-07 -3.932092E-07  0.000000E+00
     17502  9.588518E-07 -3.932092E-07  0.000000E+00
     17503  9.633038E-07 -4.094458E-07  0.000000E+00
     17504  9.633038E-07 -4.094458E-07  0.000000E+00
     17505  9.674981E-07 -4.265635E-07  0.000000E+00
     17506  9.674981E-07 -4.265635E-07  0.000000E+00
     17507  9.713823E-07 -4.446475E-07  0.000000E+00
     17508  9.713823E-07 -4.446475E-07  0.000000E+00
     17509  9.748936E-07 -4.638142E-07  0.000000E+00
     17510  9.748936E-07 -4.638142E-07  0.000000E+00
     17511  9.779558E-07 -4.842386E-07  0.000000E+00
     17512  9.779558E-07 -4.842386E-07  0.000000E+00
     17513  9.804713E-07 -5.060991E-07  0.000000E+00
     17514  9.804713E-07 -5.060991E-07  0.000000E+00
     17515  9.823047E-07 -5.296594E-07  0.000000E+00
     17516  9.823047E-07 -5.296594E-07  0.000000E+00
     17517  9.832436E-07 -5.553399E-07  0.000000E+00
     17518  9.832436E-07 -5.553399E-07  0.000000E+00
     17519  9.828941E-07 -5.838192E-07  0.000000E+00
     17520  9.828941E-07 -5.838192E-07  0.000000E+00
     17521  9.802095E-07 -6.161684E-07  0.000000E+00
     17522  9.802095E-07 -6.161684E-07  0.000000E+00
     17523  9.720737E-07 -6.569607E-07  0.000000E+00
     17524  9.720737E-07 -6.569607E-07  0.000000E+00
