    1C
    1UModel: beam     Date: 10-Mar-1998                                 
    1UUSER                                                              
    1UDATE              15.december.2018                                
    1UTIME              15:52:56                                        
    1UHOST                                                              
    1UPGM               CalculiX                                        
    1UVERSION           Version 2.15                             
    1UCOMPILETIME       Sa 15. Dez 14:32:01 CET 2018                    
    1UDIR                                                               
    1UDBN                                                               
    1UMAT    1UNDO_NLGEOM_LIN_ISO_EL_1                                  
    2C                           261                                     1
 -1         1 0.00000E+00 0.00000E+00 0.00000E+00
 -1         2 1.00000E+00 0.00000E+00 0.00000E+00
 -1         3 1.00000E+00 1.00000E+00 0.00000E+00
 -1         4 0.00000E+00 1.00000E+00 0.00000E+00
 -1         5 0.00000E+00 0.00000E+00 8.00000E+00
 -1         6 1.00000E+00 0.00000E+00 8.00000E+00
 -1         7 1.00000E+00 1.00000E+00 8.00000E+00
 -1         8 0.00000E+00 1.00000E+00 8.00000E+00
 -1         9 2.50000E-01 0.00000E+00 0.00000E+00
 -1        10 5.00000E-01 0.00000E+00 0.00000E+00
 -1        11 7.50000E-01 0.00000E+00 0.00000E+00
 -1        12 1.00000E+00 2.50000E-01 0.00000E+00
 -1        13 1.00000E+00 5.00000E-01 0.00000E+00
 -1        14 1.00000E+00 7.50000E-01 0.00000E+00
 -1        15 7.50000E-01 1.00000E+00 0.00000E+00
 -1        16 5.00000E-01 1.00000E+00 0.00000E+00
 -1        17 2.50000E-01 1.00000E+00 0.00000E+00
 -1        18 0.00000E+00 7.50000E-01 0.00000E+00
 -1        19 0.00000E+00 5.00000E-01 0.00000E+00
 -1        20 0.00000E+00 2.50000E-01 0.00000E+00
 -1        21 2.50000E-01 0.00000E+00 8.00000E+00
 -1        22 5.00000E-01 0.00000E+00 8.00000E+00
 -1        23 7.50000E-01 0.00000E+00 8.00000E+00
 -1        24 1.00000E+00 2.50000E-01 8.00000E+00
 -1        25 1.00000E+00 5.00000E-01 8.00000E+00
 -1        26 1.00000E+00 7.50000E-01 8.00000E+00
 -1        27 7.50000E-01 1.00000E+00 8.00000E+00
 -1        28 5.00000E-01 1.00000E+00 8.00000E+00
 -1        29 2.50000E-01 1.00000E+00 8.00000E+00
 -1        30 0.00000E+00 7.50000E-01 8.00000E+00
 -1        31 0.00000E+00 5.00000E-01 8.00000E+00
 -1        32 0.00000E+00 2.50000E-01 8.00000E+00
 -1        33 1.00000E+00 0.00000E+00 5.00000E-01
 -1        34 1.00000E+00 0.00000E+00 1.00000E+00
 -1        35 1.00000E+00 0.00000E+00 1.50000E+00
 -1        36 1.00000E+00 0.00000E+00 2.00000E+00
 -1        37 1.00000E+00 0.00000E+00 2.50000E+00
 -1        38 1.00000E+00 0.00000E+00 3.00000E+00
 -1        39 1.00000E+00 0.00000E+00 3.50000E+00
 -1        40 1.00000E+00 0.00000E+00 4.00000E+00
 -1        41 1.00000E+00 0.00000E+00 4.50000E+00
 -1        42 1.00000E+00 0.00000E+00 5.00000E+00
 -1        43 1.00000E+00 0.00000E+00 5.50000E+00
 -1        44 1.00000E+00 0.00000E+00 6.00000E+00
 -1        45 1.00000E+00 0.00000E+00 6.50000E+00
 -1        46 1.00000E+00 0.00000E+00 7.00000E+00
 -1        47 1.00000E+00 0.00000E+00 7.50000E+00
 -1        48 0.00000E+00 0.00000E+00 7.50000E+00
 -1        49 0.00000E+00 0.00000E+00 7.00000E+00
 -1        50 0.00000E+00 0.00000E+00 6.50000E+00
 -1        51 0.00000E+00 0.00000E+00 6.00000E+00
 -1        52 0.00000E+00 0.00000E+00 5.50000E+00
 -1        53 0.00000E+00 0.00000E+00 5.00000E+00
 -1        54 0.00000E+00 0.00000E+00 4.50000E+00
 -1        55 0.00000E+00 0.00000E+00 4.00000E+00
 -1        56 0.00000E+00 0.00000E+00 3.50000E+00
 -1        57 0.00000E+00 0.00000E+00 3.00000E+00
 -1        58 0.00000E+00 0.00000E+00 2.50000E+00
 -1        59 0.00000E+00 0.00000E+00 2.00000E+00
 -1        60 0.00000E+00 0.00000E+00 1.50000E+00
 -1        61 0.00000E+00 0.00000E+00 1.00000E+00
 -1        62 0.00000E+00 0.00000E+00 5.00000E-01
 -1        63 1.00000E+00 1.00000E+00 5.00000E-01
 -1        64 1.00000E+00 1.00000E+00 1.00000E+00
 -1        65 1.00000E+00 1.00000E+00 1.50000E+00
 -1        66 1.00000E+00 1.00000E+00 2.00000E+00
 -1        67 1.00000E+00 1.00000E+00 2.50000E+00
 -1        68 1.00000E+00 1.00000E+00 3.00000E+00
 -1        69 1.00000E+00 1.00000E+00 3.50000E+00
 -1        70 1.00000E+00 1.00000E+00 4.00000E+00
 -1        71 1.00000E+00 1.00000E+00 4.50000E+00
 -1        72 1.00000E+00 1.00000E+00 5.00000E+00
 -1        73 1.00000E+00 1.00000E+00 5.50000E+00
 -1        74 1.00000E+00 1.00000E+00 6.00000E+00
 -1        75 1.00000E+00 1.00000E+00 6.50000E+00
 -1        76 1.00000E+00 1.00000E+00 7.00000E+00
 -1        77 1.00000E+00 1.00000E+00 7.50000E+00
 -1        78 0.00000E+00 1.00000E+00 5.00000E-01
 -1        79 0.00000E+00 1.00000E+00 1.00000E+00
 -1        80 0.00000E+00 1.00000E+00 1.50000E+00
 -1        81 0.00000E+00 1.00000E+00 2.00000E+00
 -1        82 0.00000E+00 1.00000E+00 2.50000E+00
 -1        83 0.00000E+00 1.00000E+00 3.00000E+00
 -1        84 0.00000E+00 1.00000E+00 3.50000E+00
 -1        85 0.00000E+00 1.00000E+00 4.00000E+00
 -1        86 0.00000E+00 1.00000E+00 4.50000E+00
 -1        87 0.00000E+00 1.00000E+00 5.00000E+00
 -1        88 0.00000E+00 1.00000E+00 5.50000E+00
 -1        89 0.00000E+00 1.00000E+00 6.00000E+00
 -1        90 0.00000E+00 1.00000E+00 6.50000E+00
 -1        91 0.00000E+00 1.00000E+00 7.00000E+00
 -1        92 0.00000E+00 1.00000E+00 7.50000E+00
 -1        93 5.00000E-01 2.50000E-01 0.00000E+00
 -1        94 2.50000E-01 5.00000E-01 0.00000E+00
 -1        95 5.00000E-01 5.00000E-01 0.00000E+00
 -1        96 7.50000E-01 5.00000E-01 0.00000E+00
 -1        97 5.00000E-01 7.50000E-01 0.00000E+00
 -1        98 5.00000E-01 2.50000E-01 8.00000E+00
 -1        99 2.50000E-01 5.00000E-01 8.00000E+00
 -1       100 5.00000E-01 5.00000E-01 8.00000E+00
 -1       101 7.50000E-01 5.00000E-01 8.00000E+00
 -1       102 5.00000E-01 7.50000E-01 8.00000E+00
 -1       103 5.00000E-01 0.00000E+00 5.00000E-01
 -1       104 2.50000E-01 0.00000E+00 1.00000E+00
 -1       105 5.00000E-01 0.00000E+00 1.00000E+00
 -1       106 7.50000E-01 0.00000E+00 1.00000E+00
 -1       107 5.00000E-01 0.00000E+00 1.50000E+00
 -1       108 2.50000E-01 0.00000E+00 2.00000E+00
 -1       109 5.00000E-01 0.00000E+00 2.00000E+00
 -1       110 7.50000E-01 0.00000E+00 2.00000E+00
 -1       111 5.00000E-01 0.00000E+00 2.50000E+00
 -1       112 2.50000E-01 0.00000E+00 3.00000E+00
 -1       113 5.00000E-01 0.00000E+00 3.00000E+00
 -1       114 7.50000E-01 0.00000E+00 3.00000E+00
 -1       115 5.00000E-01 0.00000E+00 3.50000E+00
 -1       116 2.50000E-01 0.00000E+00 4.00000E+00
 -1       117 5.00000E-01 0.00000E+00 4.00000E+00
 -1       118 7.50000E-01 0.00000E+00 4.00000E+00
 -1       119 5.00000E-01 0.00000E+00 4.50000E+00
 -1       120 2.50000E-01 0.00000E+00 5.00000E+00
 -1       121 5.00000E-01 0.00000E+00 5.00000E+00
 -1       122 7.50000E-01 0.00000E+00 5.00000E+00
 -1       123 5.00000E-01 0.00000E+00 5.50000E+00
 -1       124 2.50000E-01 0.00000E+00 6.00000E+00
 -1       125 5.00000E-01 0.00000E+00 6.00000E+00
 -1       126 7.50000E-01 0.00000E+00 6.00000E+00
 -1       127 5.00000E-01 0.00000E+00 6.50000E+00
 -1       128 2.50000E-01 0.00000E+00 7.00000E+00
 -1       129 5.00000E-01 0.00000E+00 7.00000E+00
 -1       130 7.50000E-01 0.00000E+00 7.00000E+00
 -1       131 5.00000E-01 0.00000E+00 7.50000E+00
 -1       132 1.00000E+00 5.00000E-01 5.00000E-01
 -1       133 1.00000E+00 2.50000E-01 1.00000E+00
 -1       134 1.00000E+00 5.00000E-01 1.00000E+00
 -1       135 1.00000E+00 7.50000E-01 1.00000E+00
 -1       136 1.00000E+00 5.00000E-01 1.50000E+00
 -1       137 1.00000E+00 2.50000E-01 2.00000E+00
 -1       138 1.00000E+00 5.00000E-01 2.00000E+00
 -1       139 1.00000E+00 7.50000E-01 2.00000E+00
 -1       140 1.00000E+00 5.00000E-01 2.50000E+00
 -1       141 1.00000E+00 2.50000E-01 3.00000E+00
 -1       142 1.00000E+00 5.00000E-01 3.00000E+00
 -1       143 1.00000E+00 7.50000E-01 3.00000E+00
 -1       144 1.00000E+00 5.00000E-01 3.50000E+00
 -1       145 1.00000E+00 2.50000E-01 4.00000E+00
 -1       146 1.00000E+00 5.00000E-01 4.00000E+00
 -1       147 1.00000E+00 7.50000E-01 4.00000E+00
 -1       148 1.00000E+00 5.00000E-01 4.50000E+00
 -1       149 1.00000E+00 2.50000E-01 5.00000E+00
 -1       150 1.00000E+00 5.00000E-01 5.00000E+00
 -1       151 1.00000E+00 7.50000E-01 5.00000E+00
 -1       152 1.00000E+00 5.00000E-01 5.50000E+00
 -1       153 1.00000E+00 2.50000E-01 6.00000E+00
 -1       154 1.00000E+00 5.00000E-01 6.00000E+00
 -1       155 1.00000E+00 7.50000E-01 6.00000E+00
 -1       156 1.00000E+00 5.00000E-01 6.50000E+00
 -1       157 1.00000E+00 2.50000E-01 7.00000E+00
 -1       158 1.00000E+00 5.00000E-01 7.00000E+00
 -1       159 1.00000E+00 7.50000E-01 7.00000E+00
 -1       160 1.00000E+00 5.00000E-01 7.50000E+00
 -1       161 5.00000E-01 1.00000E+00 5.00000E-01
 -1       162 7.50000E-01 1.00000E+00 1.00000E+00
 -1       163 5.00000E-01 1.00000E+00 1.00000E+00
 -1       164 2.50000E-01 1.00000E+00 1.00000E+00
 -1       165 5.00000E-01 1.00000E+00 1.50000E+00
 -1       166 7.50000E-01 1.00000E+00 2.00000E+00
 -1       167 5.00000E-01 1.00000E+00 2.00000E+00
 -1       168 2.50000E-01 1.00000E+00 2.00000E+00
 -1       169 5.00000E-01 1.00000E+00 2.50000E+00
 -1       170 7.50000E-01 1.00000E+00 3.00000E+00
 -1       171 5.00000E-01 1.00000E+00 3.00000E+00
 -1       172 2.50000E-01 1.00000E+00 3.00000E+00
 -1       173 5.00000E-01 1.00000E+00 3.50000E+00
 -1       174 7.50000E-01 1.00000E+00 4.00000E+00
 -1       175 5.00000E-01 1.00000E+00 4.00000E+00
 -1       176 2.50000E-01 1.00000E+00 4.00000E+00
 -1       177 5.00000E-01 1.00000E+00 4.50000E+00
 -1       178 7.50000E-01 1.00000E+00 5.00000E+00
 -1       179 5.00000E-01 1.00000E+00 5.00000E+00
 -1       180 2.50000E-01 1.00000E+00 5.00000E+00
 -1       181 5.00000E-01 1.00000E+00 5.50000E+00
 -1       182 7.50000E-01 1.00000E+00 6.00000E+00
 -1       183 5.00000E-01 1.00000E+00 6.00000E+00
 -1       184 2.50000E-01 1.00000E+00 6.00000E+00
 -1       185 5.00000E-01 1.00000E+00 6.50000E+00
 -1       186 7.50000E-01 1.00000E+00 7.00000E+00
 -1       187 5.00000E-01 1.00000E+00 7.00000E+00
 -1       188 2.50000E-01 1.00000E+00 7.00000E+00
 -1       189 5.00000E-01 1.00000E+00 7.50000E+00
 -1       190 0.00000E+00 5.00000E-01 5.00000E-01
 -1       191 0.00000E+00 7.50000E-01 1.00000E+00
 -1       192 0.00000E+00 5.00000E-01 1.00000E+00
 -1       193 0.00000E+00 2.50000E-01 1.00000E+00
 -1       194 0.00000E+00 5.00000E-01 1.50000E+00
 -1       195 0.00000E+00 7.50000E-01 2.00000E+00
 -1       196 0.00000E+00 5.00000E-01 2.00000E+00
 -1       197 0.00000E+00 2.50000E-01 2.00000E+00
 -1       198 0.00000E+00 5.00000E-01 2.50000E+00
 -1       199 0.00000E+00 7.50000E-01 3.00000E+00
 -1       200 0.00000E+00 5.00000E-01 3.00000E+00
 -1       201 0.00000E+00 2.50000E-01 3.00000E+00
 -1       202 0.00000E+00 5.00000E-01 3.50000E+00
 -1       203 0.00000E+00 7.50000E-01 4.00000E+00
 -1       204 0.00000E+00 5.00000E-01 4.00000E+00
 -1       205 0.00000E+00 2.50000E-01 4.00000E+00
 -1       206 0.00000E+00 5.00000E-01 4.50000E+00
 -1       207 0.00000E+00 7.50000E-01 5.00000E+00
 -1       208 0.00000E+00 5.00000E-01 5.00000E+00
 -1       209 0.00000E+00 2.50000E-01 5.00000E+00
 -1       210 0.00000E+00 5.00000E-01 5.50000E+00
 -1       211 0.00000E+00 7.50000E-01 6.00000E+00
 -1       212 0.00000E+00 5.00000E-01 6.00000E+00
 -1       213 0.00000E+00 2.50000E-01 6.00000E+00
 -1       214 0.00000E+00 5.00000E-01 6.50000E+00
 -1       215 0.00000E+00 7.50000E-01 7.00000E+00
 -1       216 0.00000E+00 5.00000E-01 7.00000E+00
 -1       217 0.00000E+00 2.50000E-01 7.00000E+00
 -1       218 0.00000E+00 5.00000E-01 7.50000E+00
 -1       219 5.00000E-01 5.00000E-01 5.00000E-01
 -1       220 5.00000E-01 2.50000E-01 1.00000E+00
 -1       221 2.50000E-01 5.00000E-01 1.00000E+00
 -1       222 5.00000E-01 5.00000E-01 1.00000E+00
 -1       223 7.50000E-01 5.00000E-01 1.00000E+00
 -1       224 5.00000E-01 7.50000E-01 1.00000E+00
 -1       225 5.00000E-01 5.00000E-01 1.50000E+00
 -1       226 5.00000E-01 2.50000E-01 2.00000E+00
 -1       227 2.50000E-01 5.00000E-01 2.00000E+00
 -1       228 5.00000E-01 5.00000E-01 2.00000E+00
 -1       229 7.50000E-01 5.00000E-01 2.00000E+00
 -1       230 5.00000E-01 7.50000E-01 2.00000E+00
 -1       231 5.00000E-01 5.00000E-01 2.50000E+00
 -1       232 5.00000E-01 2.50000E-01 3.00000E+00
 -1       233 2.50000E-01 5.00000E-01 3.00000E+00
 -1       234 5.00000E-01 5.00000E-01 3.00000E+00
 -1       235 7.50000E-01 5.00000E-01 3.00000E+00
 -1       236 5.00000E-01 7.50000E-01 3.00000E+00
 -1       237 5.00000E-01 5.00000E-01 3.50000E+00
 -1       238 5.00000E-01 2.50000E-01 4.00000E+00
 -1       239 2.50000E-01 5.00000E-01 4.00000E+00
 -1       240 5.00000E-01 5.00000E-01 4.00000E+00
 -1       241 7.50000E-01 5.00000E-01 4.00000E+00
 -1       242 5.00000E-01 7.50000E-01 4.00000E+00
 -1       243 5.00000E-01 5.00000E-01 4.50000E+00
 -1       244 5.00000E-01 2.50000E-01 5.00000E+00
 -1       245 2.50000E-01 5.00000E-01 5.00000E+00
 -1       246 5.00000E-01 5.00000E-01 5.00000E+00
 -1       247 7.50000E-01 5.00000E-01 5.00000E+00
 -1       248 5.00000E-01 7.50000E-01 5.00000E+00
 -1       249 5.00000E-01 5.00000E-01 5.50000E+00
 -1       250 5.00000E-01 2.50000E-01 6.00000E+00
 -1       251 2.50000E-01 5.00000E-01 6.00000E+00
 -1       252 5.00000E-01 5.00000E-01 6.00000E+00
 -1       253 7.50000E-01 5.00000E-01 6.00000E+00
 -1       254 5.00000E-01 7.50000E-01 6.00000E+00
 -1       255 5.00000E-01 5.00000E-01 6.50000E+00
 -1       256 5.00000E-01 2.50000E-01 7.00000E+00
 -1       257 2.50000E-01 5.00000E-01 7.00000E+00
 -1       258 5.00000E-01 5.00000E-01 7.00000E+00
 -1       259 7.50000E-01 5.00000E-01 7.00000E+00
 -1       260 5.00000E-01 7.50000E-01 7.00000E+00
 -1       261 5.00000E-01 5.00000E-01 7.50000E+00
 -3
    3C                            32                                     1
 -1         1    4    0    1
 -2         1        10        95        19        61       105       222       192         9        93
 -2        94        20        62       103       219       190       104       220       221       193
 -1         2    4    0    1
 -2        10         2        13        95       105        34       134       222        11        12
 -2        96        93       103        33       132       219       106       133       223       220
 -1         3    4    0    1
 -2        19        95        16         4       192       222       163        79        94        97
 -2        17        18       190       219       161        78       221       224       164       191
 -1         4    4    0    1
 -2        95        13         3        16       222       134        64       163        96        14
 -2        15        97       219       132        63       161       223       135       162       224
 -1         5    4    0    1
 -2        61       105       222       192        59       109       228       196       104       220
 -2       221       193        60       107       225       194       108       226       227       197
 -1         6    4    0    1
 -2       105        34       134       222       109        36       138       228       106       133
 -2       223       220       107        35       136       225       110       137       229       226
 -1         7    4    0    1
 -2       192       222       163        79       196       228       167        81       221       224
 -2       164       191       194       225       165        80       227       230       168       195
 -1         8    4    0    1
 -2       222       134        64       163       228       138        66       167       223       135
 -2       162       224       225       136        65       165       229       139       166       230
 -1         9    4    0    1
 -2        59       109       228       196        57       113       234       200       108       226
 -2       227       197        58       111       231       198       112       232       233       201
 -1        10    4    0    1
 -2       109        36       138       228       113        38       142       234       110       137
 -2       229       226       111        37       140       231       114       141       235       232
 -1        11    4    0    1
 -2       196       228       167        81       200       234       171        83       227       230
 -2       168       195       198       231       169        82       233       236       172       199
 -1        12    4    0    1
 -2       228       138        66       167       234       142        68       171       229       139
 -2       166       230       231       140        67       169       235       143       170       236
 -1        13    4    0    1
 -2        57       113       234       200        55       117       240       204       112       232
 -2       233       201        56       115       237       202       116       238       239       205
 -1        14    4    0    1
 -2       113        38       142       234       117        40       146       240       114       141
 -2       235       232       115        39       144       237       118       145       241       238
 -1        15    4    0    1
 -2       200       234       171        83       204       240       175        85       233       236
 -2       172       199       202       237       173        84       239       242       176       203
 -1        16    4    0    1
 -2       234       142        68       171       240       146        70       175       235       143
 -2       170       236       237       144        69       173       241       147       174       242
 -1        17    4    0    1
 -2        55       117       240       204        53       121       246       208       116       238
 -2       239       205        54       119       243       206       120       244       245       209
 -1        18    4    0    1
 -2       117        40       146       240       121        42       150       246       118       145
 -2       241       238       119        41       148       243       122       149       247       244
 -1        19    4    0    1
 -2       204       240       175        85       208       246       179        87       239       242
 -2       176       203       206       243       177        86       245       248       180       207
 -1        20    4    0    1
 -2       240       146        70       175       246       150        72       179       241       147
 -2       174       242       243       148        71       177       247       151       178       248
 -1        21    4    0    1
 -2        53       121       246       208        51       125       252       212       120       244
 -2       245       209        52       123       249       210       124       250       251       213
 -1        22    4    0    1
 -2       121        42       150       246       125        44       154       252       122       149
 -2       247       244       123        43       152       249       126       153       253       250
 -1        23    4    0    1
 -2       208       246       179        87       212       252       183        89       245       248
 -2       180       207       210       249       181        88       251       254       184       211
 -1        24    4    0    1
 -2       246       150        72       179       252       154        74       183       247       151
 -2       178       248       249       152        73       181       253       155       182       254
 -1        25    4    0    1
 -2        51       125       252       212        49       129       258       216       124       250
 -2       251       213        50       127       255       214       128       256       257       217
 -1        26    4    0    1
 -2       125        44       154       252       129        46       158       258       126       153
 -2       253       250       127        45       156       255       130       157       259       256
 -1        27    4    0    1
 -2       212       252       183        89       216       258       187        91       251       254
 -2       184       211       214       255       185        90       257       260       188       215
 -1        28    4    0    1
 -2       252       154        74       183       258       158        76       187       253       155
 -2       182       254       255       156        75       185       259       159       186       260
 -1        29    4    0    1
 -2        49       129       258       216         5        22       100        31       128       256
 -2       257       217        48       131       261       218        21        98        99        32
 -1        30    4    0    1
 -2       129        46       158       258        22         6        25       100       130       157
 -2       259       256       131        47       160       261        23        24       101        98
 -1        31    4    0    1
 -2       216       258       187        91        31       100        28         8       257       260
 -2       188       215       218       261       189        92        99       102        29        30
 -1        32    4    0    1
 -2       258       158        76       187       100        25         7        28       259       159
 -2       186       260       261       160        77       189       101        26        27       102
 -3
    1PSTEP                         1           1           1          
  100CL  101 1.000000000         261                     0    1           1
 -4  TOSTRAIN    6    1
 -5  EXX         1    4    1    1
 -5  EYY         1    4    2    2
 -5  EZZ         1    4    3    3
 -5  EXY         1    4    1    2
 -5  EYZ         1    4    2    3
 -5  EZX         1    4    3    1
 -1         1 2.77926E-13 5.69528E-13-2.16512E-12 3.66134E-13 1.01310E-12-3.11543E-13
 -1         2 2.77325E-13 5.68933E-13-2.16620E-12-3.65838E-13 1.01323E-12 3.11515E-13
 -1         3 2.71889E-13 5.88915E-13-2.21293E-12 3.82534E-13-1.03539E-12 3.11919E-13
 -1         4 2.73503E-13 5.88875E-13-2.21194E-12-3.82790E-13-1.03540E-12-3.12272E-13
 -1         5-5.64252E-13 4.08252E-13 2.24727E-12 1.45245E-13 2.72885E-12 2.66572E-12
 -1         6-5.62625E-13 4.08550E-13 2.24697E-12-1.45172E-13 2.72870E-12-2.66557E-12
 -1         7-4.26076E-13-7.50681E-13 3.47783E-12 5.89164E-13-2.28020E-12-2.41874E-12
 -1         8-4.25445E-13-7.49812E-13 3.47834E-12-5.88845E-13-2.28002E-12 2.41873E-12
 -1         9 5.08340E-14 8.40891E-13-2.21840E-12 3.01317E-13 9.21155E-13-1.19069E-13
 -1        10-1.76398E-13 1.11191E-12-2.27165E-12-1.50389E-16 8.29180E-13-1.22323E-18
 -1        11 5.03934E-14 8.40251E-13-2.21891E-12-3.01320E-13 9.21189E-13 1.19055E-13
 -1        12-2.42852E-13-3.92719E-13 1.52750E-12 3.17148E-14-1.22197E-12-1.67224E-13
 -1        13-7.68012E-13-1.30344E-12 5.22983E-12-1.34744E-14 1.09053E-13-6.44290E-13
 -1        14-2.50553E-13-3.31798E-13 1.51276E-12-3.68414E-14 1.31994E-12-1.65349E-13
 -1        15 4.07031E-14 8.70731E-13-2.27317E-12 3.13311E-13-9.43245E-13 1.19552E-13
 -1        16-1.90605E-13 1.15288E-12-2.33341E-12 1.65560E-16-8.51085E-13 2.34213E-16
 -1        17 4.13875E-14 8.71049E-13-2.27268E-12-3.13274E-13-9.43231E-13-1.19494E-13
 -1        18-2.50157E-13-3.31479E-13 1.51239E-12 3.66608E-14 1.31997E-12 1.65303E-13
 -1        19-7.69186E-13-1.30421E-12 5.22780E-12 1.33671E-14 1.09025E-13 6.44486E-13
 -1        20-2.43315E-13-3.93533E-13 1.52688E-12-3.16221E-14-1.22209E-12 1.67276E-13
 -1        21 5.01999E-13 9.80153E-13-2.63209E-12 2.72354E-13-8.06491E-13-1.17721E-12
 -1        22 1.56789E-12 1.55228E-12-7.51106E-12-1.04905E-16-4.34186E-12-9.96143E-17
 -1        23 5.02454E-13 9.80524E-13-2.63184E-12-2.72422E-13-8.06590E-13 1.17718E-12
 -1        24 9.92850E-13 3.30424E-14-2.48562E-12-3.29989E-13-1.35425E-12 7.75409E-13
 -1        25 2.63724E-12-6.56358E-13-7.36813E-12-1.51989E-13-5.61794E-13 4.07350E-12
 -1        26 1.15004E-12-8.60466E-13-2.02010E-12 3.99996E-13 1.01671E-12 7.55936E-13
 -1        27-4.52615E-13 6.52518E-13-1.54717E-12 2.94860E-13 6.63244E-13 1.30855E-12
 -1        28-4.79230E-13 2.05559E-12-6.57228E-12-1.11287E-16 3.60671E-12-5.99920E-18
 -1        29-4.52375E-13 6.52827E-13-1.54703E-12-2.94812E-13 6.63363E-13-1.30856E-12
 -1        30 1.15034E-12-8.60480E-13-2.01962E-12-3.99808E-13 1.01674E-12-7.55893E-13
 -1        31 2.63706E-12-6.57040E-13-7.36810E-12 1.51898E-13-5.61964E-13-4.07341E-12
 -1        32 9.91870E-13 3.26613E-14-2.48567E-12 3.29906E-13-1.35428E-12-7.75288E-13
 -1        33-1.07748E-13-1.60973E-13 2.37579E-13-1.77511E-13 3.57647E-14-4.22478E-14
 -1        34-5.59517E-13-4.91725E-13 2.03267E-12 1.08421E-13-4.86099E-13-7.58990E-14
 -1        35-4.59866E-13-3.27626E-13 1.34716E-12 4.95035E-14-3.68670E-14 6.19570E-14
 -1        36-3.32024E-13-4.78129E-13 1.27813E-12-4.79681E-14 2.70883E-14-4.82014E-14
 -1        37-3.40181E-13-3.38883E-13 1.14458E-12-2.39229E-15 4.96464E-14 3.52498E-15
 -1        38-3.09533E-13-2.86978E-13 1.01428E-12-6.94196E-15-1.55832E-14 1.45826E-14
 -1        39-2.78271E-13-2.55588E-13 8.88295E-13 1.04952E-14 1.87932E-14-5.53761E-15
 -1        40-2.31588E-13-2.11685E-13 7.75546E-13-1.13952E-14 3.05221E-14-2.51504E-15
 -1        41-1.96446E-13-1.74214E-13 6.33440E-13 5.00175E-16-4.49934E-16 1.95511E-14
 -1        42-1.29453E-13-1.18252E-13 4.96835E-13-5.51669E-14-9.81142E-14 1.25358E-13
 -1        43-1.69805E-13-1.34314E-13 4.03326E-13 6.34113E-14 1.57719E-13-1.33466E-13
 -1        44-1.67020E-13-1.10052E-13 1.89608E-13-8.83438E-14 2.86161E-13-2.38692E-13
 -1        45 1.22463E-13 5.30180E-14 2.51881E-13-1.88271E-14-4.43055E-13 4.38523E-13
 -1        46 1.68350E-13-1.16046E-13-9.02659E-13 1.65777E-13-5.03441E-13 6.20086E-13
 -1        47-2.73579E-13 1.44548E-14 1.85438E-14-1.16303E-13 1.32994E-12-1.12461E-12
 -1        48-2.74156E-13 1.43457E-14 1.89675E-14 1.16297E-13 1.33001E-12 1.12458E-12
 -1        49 1.68210E-13-1.16637E-13-9.03234E-13-1.65909E-13-5.03453E-13-6.20315E-13
 -1        50 1.22322E-13 5.29030E-14 2.51190E-13 1.88905E-14-4.43086E-13-4.38502E-13
 -1        51-1.66515E-13-1.09157E-13 1.90276E-13 8.86904E-14 2.86115E-13 2.38864E-13
 -1        52-1.69960E-13-1.33914E-13 4.03630E-13-6.33932E-14 1.57714E-13 1.33408E-13
 -1        53-1.29251E-13-1.17863E-13 4.96844E-13 5.49343E-14-9.81505E-14-1.25364E-13
 -1        54-1.95355E-13-1.73663E-13 6.34143E-13-2.29762E-16-4.11951E-16-1.95021E-14
 -1        55-2.30521E-13-2.11275E-13 7.75618E-13 1.18034E-14 3.05760E-14 2.33075E-15
 -1        56-2.77882E-13-2.56018E-13 8.87729E-13-1.04404E-14 1.87993E-14 5.54291E-15
 -1        57-3.09655E-13-2.88054E-13 1.01383E-12 7.02267E-15-1.55727E-14-1.44335E-14
 -1        58-3.40166E-13-3.39242E-13 1.14397E-12 2.22362E-15 4.96110E-14-3.55501E-15
 -1        59-3.31179E-13-4.77153E-13 1.27874E-12 4.75214E-14 2.71429E-14 4.82525E-14
 -1        60-4.60037E-13-3.27186E-13 1.34769E-12-4.96579E-14-3.67949E-14-6.19821E-14
 -1        61-5.61826E-13-4.92909E-13 2.03094E-12-1.08383E-13-4.86105E-13 7.59697E-14
 -1        62-1.08666E-13-1.61383E-13 2.36769E-13 1.77679E-13 3.56866E-14 4.24003E-14
 -1        63-1.71880E-13-2.42566E-13 4.53554E-13 1.84870E-13 8.11992E-15-5.16694E-14
 -1        64-6.93354E-13-6.28044E-13 2.48906E-12-1.12337E-13 5.31628E-13-8.87723E-14
 -1        65-6.78923E-13-5.31997E-13 2.06612E-12-5.23538E-14 5.87110E-14 5.59119E-14
 -1        66-6.24771E-13-7.80478E-13 2.26736E-12 5.00098E-14 1.97655E-14-5.70482E-14
 -1        67-7.12677E-13-7.13586E-13 2.38705E-12 2.38497E-15-1.59715E-14-5.89168E-15
 -1        68-7.61633E-13-7.37735E-13 2.51670E-12 7.52254E-15 5.54918E-14 6.80207E-15
 -1        69-8.04624E-13-7.83284E-13 2.64793E-12-1.08775E-14 1.35479E-14-1.32594E-14
 -1        70-8.31464E-13-8.11219E-13 2.78715E-12 1.52869E-14 1.66919E-14-9.23630E-15
 -1        71-8.81628E-13-8.59583E-13 2.90646E-12-4.05212E-15 2.46181E-14 9.23704E-15
 -1        72-9.00248E-13-8.67362E-13 3.02060E-12 5.92654E-14 1.41446E-13 1.16288E-13
 -1        73-9.81396E-13-9.67379E-13 3.17874E-12-6.17698E-14-1.15197E-13-1.36919E-13
 -1        74-1.00862E-12-9.87879E-13 3.17296E-12 1.12887E-13-1.57666E-13-2.31759E-13
 -1        75-9.30945E-13-9.58286E-13 3.52630E-12-1.46058E-14 3.57535E-13 4.04255E-13
 -1        76-1.15435E-12-1.06215E-12 3.07875E-12-1.96425E-13 5.92329E-13 5.45167E-13
 -1        77-8.89456E-13-8.99073E-13 2.79887E-12 3.78462E-13-7.89469E-13-1.03363E-12
 -1        78-1.72028E-13-2.42440E-13 4.53584E-13-1.84960E-13 8.11255E-15 5.16092E-14
 -1        79-6.94673E-13-6.27029E-13 2.48941E-12 1.12473E-13 5.31629E-13 8.90365E-14
 -1        80-6.79575E-13-5.31624E-13 2.06655E-12 5.23032E-14 5.87271E-14-5.57246E-14
 -1        81-6.24880E-13-7.81065E-13 2.26756E-12-5.03722E-14 1.99267E-14 5.69401E-14
 -1        82-7.12829E-13-7.13338E-13 2.38739E-12-2.64453E-15-1.60756E-14 5.79771E-15
 -1        83-7.61962E-13-7.36997E-13 2.51597E-12-7.51004E-15 5.52334E-14-6.81633E-15
 -1        84-8.04554E-13-7.82991E-13 2.64775E-12 1.10918E-14 1.36236E-14 1.32525E-14
 -1        85-8.31227E-13-8.11559E-13 2.78726E-12-1.50203E-14 1.67970E-14 9.33559E-15
 -1        86-8.82346E-13-8.60523E-13 2.90601E-12 4.07737E-15 2.47598E-14-9.21352E-15
 -1        87-9.01723E-13-8.68513E-13 3.01973E-12-5.94231E-14 1.41603E-13-1.16251E-13
 -1        88-9.82794E-13-9.68390E-13 3.17842E-12 6.18227E-14-1.15266E-13 1.36819E-13
 -1        89-1.00975E-12-9.88900E-13 3.17330E-12-1.12634E-13-1.57845E-13 2.31721E-13
 -1        90-9.31304E-13-9.58741E-13 3.52615E-12 1.46774E-14 3.57491E-13-4.04126E-13
 -1        91-1.15438E-12-1.06233E-12 3.07838E-12 1.96273E-13 5.92199E-13-5.45178E-13
 -1        92-8.89136E-13-8.98816E-13 2.79897E-12-3.78399E-13-7.89537E-13 1.03360E-12
 -1        93-4.70475E-13 1.81071E-13 1.46674E-12-1.51803E-17-1.21371E-12-5.56887E-17