    1C
    1UUSER                                                              
    1UDATE              15.december.2018                                
    1UTIME              15:53:03                                        
    1UHOST                                                              
    1UPGM               CalculiX                                        
    1UVERSION           Version 2.15                             
    1UCOMPILETIME       Sa 15. Dez 14:32:01 CET 2018                    
    1UDIR                                                               
    1UDBN                                                               
    1UMAT    1EL                                                        
    2C                            80                                     1
 -1        22 0.00000E+00 0.00000E+00-5.00000E-03
 -1        23 0.00000E+00 0.00000E+00 0.00000E+00
 -1        24 0.00000E+00 0.00000E+00 5.00000E-03
 -1        25 0.00000E+00 0.00000E+00-5.00000E-03
 -1        26 0.00000E+00 0.00000E+00 0.00000E+00
 -1        27 0.00000E+00 0.00000E+00 5.00000E-03
 -1        28 0.00000E+00 0.00000E+00-5.00000E-03
 -1        29 0.00000E+00 0.00000E+00 0.00000E+00
 -1        30 0.00000E+00 0.00000E+00 5.00000E-03
 -1        31 0.00000E+00 0.00000E+00-5.00000E-03
 -1        32 0.00000E+00 0.00000E+00 0.00000E+00
 -1        33 0.00000E+00 0.00000E+00 5.00000E-03
 -1        36 1.00000E+00 0.00000E+00-5.00000E-03
 -1        37 1.00000E+00 0.00000E+00 0.00000E+00
 -1        38 1.00000E+00 0.00000E+00 5.00000E-03
 -1        39 1.00000E+00 0.00000E+00-5.00000E-03
 -1        40 1.00000E+00 0.00000E+00 0.00000E+00
 -1        41 1.00000E+00 0.00000E+00 5.00000E-03
 -1        44 1.00000E+00 1.00000E+00-5.00000E-03
 -1        45 1.00000E+00 1.00000E+00 0.00000E+00
 -1        46 1.00000E+00 1.00000E+00 5.00000E-03
 -1        47 0.00000E+00 1.00000E+00-5.00000E-03
 -1        48 0.00000E+00 1.00000E+00 0.00000E+00
 -1        49 0.00000E+00 1.00000E+00 5.00000E-03
 -1        50 0.00000E+00 1.00000E+00-5.00000E-03
 -1        51 0.00000E+00 1.00000E+00 0.00000E+00
 -1        52 0.00000E+00 1.00000E+00 5.00000E-03
 -1        55-1.00000E+00 1.00000E+00-5.00000E-03
 -1        56-1.00000E+00 1.00000E+00 0.00000E+00
 -1        57-1.00000E+00 1.00000E+00 5.00000E-03
 -1        58-1.00000E+00 0.00000E+00-5.00000E-03
 -1        59-1.00000E+00 0.00000E+00 0.00000E+00
 -1        60-1.00000E+00 0.00000E+00 5.00000E-03
 -1        61-1.00000E+00 0.00000E+00-5.00000E-03
 -1        62-1.00000E+00 0.00000E+00 0.00000E+00
 -1        63-1.00000E+00 0.00000E+00 5.00000E-03
 -1        66-1.00000E+00-1.00000E+00-5.00000E-03
 -1        67-1.00000E+00-1.00000E+00 0.00000E+00
 -1        68-1.00000E+00-1.00000E+00 5.00000E-03
 -1        69 0.00000E+00-1.00000E+00-5.00000E-03
 -1        70 0.00000E+00-1.00000E+00 0.00000E+00
 -1        71 0.00000E+00-1.00000E+00 5.00000E-03
 -1        72 0.00000E+00-1.00000E+00-5.00000E-03
 -1        73 0.00000E+00-1.00000E+00 0.00000E+00
 -1        74 0.00000E+00-1.00000E+00 5.00000E-03
 -1        77 1.00000E+00-1.00000E+00-5.00000E-03
 -1        78 1.00000E+00-1.00000E+00 0.00000E+00
 -1        79 1.00000E+00-1.00000E+00 5.00000E-03
 -1        80 5.00000E-01-1.00000E+00-5.00000E-03
 -1        82 5.00000E-01-1.00000E+00 5.00000E-03
 -1        83 1.00000E+00-5.00000E-01-5.00000E-03
 -1        85 1.00000E+00-5.00000E-01 5.00000E-03
 -1        86 1.00000E+00 5.00000E-01-5.00000E-03
 -1        88 1.00000E+00 5.00000E-01 5.00000E-03
 -1        89 5.00000E-01 1.00000E+00-5.00000E-03
 -1        91 5.00000E-01 1.00000E+00 5.00000E-03
 -1        92-5.00000E-01 1.00000E+00-5.00000E-03
 -1        94-5.00000E-01 1.00000E+00 5.00000E-03
 -1        95-1.00000E+00 5.00000E-01-5.00000E-03
 -1        97-1.00000E+00 5.00000E-01 5.00000E-03
 -1        98-1.00000E+00-5.00000E-01-5.00000E-03
 -1       100-1.00000E+00-5.00000E-01 5.00000E-03
 -1       101-5.00000E-01-1.00000E+00-5.00000E-03
 -1       103-5.00000E-01-1.00000E+00 5.00000E-03
 -1       104 0.00000E+00-5.00000E-01-5.00000E-03
 -1       106 0.00000E+00-5.00000E-01 5.00000E-03
 -1       107 0.00000E+00-5.00000E-01-5.00000E-03
 -1       109 0.00000E+00-5.00000E-01 5.00000E-03
 -1       112 5.00000E-01 0.00000E+00-5.00000E-03
 -1       114 5.00000E-01 0.00000E+00 5.00000E-03
 -1       115 5.00000E-01 0.00000E+00-5.00000E-03
 -1       117 5.00000E-01 0.00000E+00 5.00000E-03
 -1       120 0.00000E+00 5.00000E-01-5.00000E-03
 -1       122 0.00000E+00 5.00000E-01 5.00000E-03
 -1       123 0.00000E+00 5.00000E-01-5.00000E-03
 -1       125 0.00000E+00 5.00000E-01 5.00000E-03
 -1       128-5.00000E-01 0.00000E+00-5.00000E-03
 -1       130-5.00000E-01 0.00000E+00 5.00000E-03
 -1       131-5.00000E-01 0.00000E+00-5.00000E-03
 -1       133-5.00000E-01 0.00000E+00 5.00000E-03
 -3
    3C                             4                                     1
 -1         1    4    0    1
 -2        22        36        44        47        24        38        46        49       112        86
 -2        89       120        23        37        45        48       114        88        91       122
 -1         2    4    0    1
 -2        25        50        55        58        27        52        57        60       123        92
 -2        95       128        26        51        56        59       125        94        97       130
 -1         3    4    0    1
 -2        28        61        66        69        30        63        68        71       131        98
 -2       101       104        29        62        67        70       133       100       103       106
 -1         4    4    0    1
 -2        31        72        77        39        33        74        79        41       107        80
 -2        83       115        32        73        78        40       109        82        85       117
 -3
    1PSTEP                         1           1           1          
  100CL  101 1.000000000          80                     0    1           1
 -4  DISP        4    1
 -5  D1          1    2    1    0
 -5  D2          1    2    2    0
 -5  D3          1    2    3    0
 -5  ALL         1    2    0    0    1ALL
 -1        22 2.65798E-05 2.65798E-05-5.30598E-03
 -1        23 3.97418E-09 3.97418E-09-5.30618E-03
 -1        24-2.65798E-05-2.65798E-05-5.30639E-03
 -1        25-2.65798E-05 2.65798E-05-5.30598E-03
 -1        26-3.97418E-09 3.97418E-09-5.30618E-03
 -1        27 2.65798E-05-2.65798E-05-5.30639E-03
 -1        28-2.65798E-05-2.65798E-05-5.30598E-03
 -1        29-3.97418E-09-3.97418E-09-5.30618E-03
 -1        30 2.65798E-05 2.65798E-05-5.30639E-03
 -1        31 2.65798E-05-2.65798E-05-5.30598E-03
 -1        32 3.97418E-09-3.97418E-09-5.30618E-03
 -1        33-2.65798E-05 2.65798E-05-5.30639E-03
 -1        36 2.64751E-05 2.61561E-09 9.93349E-08
 -1        37-2.71899E-09-1.00232E-09 8.66727E-11
 -1        38-2.64751E-05-2.61561E-09-9.93349E-08
 -1        39 2.64751E-05-2.61561E-09 9.93349E-08
 -1        40-2.71899E-09 1.00232E-09 8.66727E-11
 -1        41-2.64751E-05 2.61561E-09-9.93349E-08
 -1        44 2.61054E-09 2.61054E-09 3.57940E-11
 -1        45 0.00000E+00 0.00000E+00 0.00000E+00
 -1        46-2.61054E-09-2.61054E-09-3.57940E-11
 -1        47 2.61561E-09 2.64751E-05 9.93349E-08
 -1        48-1.00232E-09-2.71899E-09 8.66727E-11
 -1        49-2.61561E-09-2.64751E-05-9.93349E-08
 -1        50-2.61561E-09 2.64751E-05 9.93349E-08
 -1        51 1.00232E-09-2.71899E-09 8.66727E-11
 -1        52 2.61561E-09-2.64751E-05-9.93349E-08
 -1        55-2.61054E-09 2.61054E-09 3.57940E-11
 -1        56 0.00000E+00 0.00000E+00 0.00000E+00
 -1        57 2.61054E-09-2.61054E-09-3.57940E-11
 -1        58-2.64751E-05 2.61561E-09 9.93349E-08
 -1        59 2.71899E-09-1.00232E-09 8.66727E-11
 -1        60 2.64751E-05-2.61561E-09-9.93349E-08
 -1        61-2.64751E-05-2.61561E-09 9.93349E-08
 -1        62 2.71899E-09 1.00232E-09 8.66727E-11
 -1        63 2.64751E-05 2.61561E-09-9.93349E-08
 -1        66-2.61054E-09-2.61054E-09 3.57940E-11
 -1        67 0.00000E+00 0.00000E+00 0.00000E+00
 -1        68 2.61054E-09 2.61054E-09-3.57940E-11
 -1        69-2.61561E-09-2.64751E-05 9.93349E-08
 -1        70 1.00232E-09 2.71899E-09 8.66727E-11
 -1        71 2.61561E-09 2.64751E-05-9.93349E-08
 -1        72 2.61561E-09-2.64751E-05 9.93349E-08
 -1        73-1.00232E-09 2.71899E-09 8.66727E-11
 -1        74-2.61561E-09 2.64751E-05-9.93349E-08
 -1        77 2.61054E-09-2.61054E-09 3.57940E-11
 -1        78 0.00000E+00 0.00000E+00 0.00000E+00
 -1        79-2.61054E-09 2.61054E-09-3.57940E-11
 -1        80 2.61859E-09-1.32259E-05 2.46153E-08
 -1        82-2.61859E-09 1.32259E-05-2.46153E-08
 -1        83 1.32259E-05-2.61859E-09 2.46153E-08
 -1        85-1.32259E-05 2.61859E-09-2.46153E-08
 -1        86 1.32259E-05 2.61859E-09 2.46153E-08
 -1        88-1.32259E-05-2.61859E-09-2.46153E-08
 -1        89 2.61859E-09 1.32259E-05 2.46153E-08
 -1        91-2.61859E-09-1.32259E-05-2.46153E-08
 -1        92-2.61859E-09 1.32259E-05 2.46153E-08
 -1        94 2.61859E-09-1.32259E-05-2.46153E-08
 -1        95-1.32259E-05 2.61859E-09 2.46153E-08
 -1        97 1.32259E-05-2.61859E-09-2.46153E-08
 -1        98-1.32259E-05-2.61859E-09 2.46153E-08
 -1       100 1.32259E-05 2.61859E-09-2.46153E-08
 -1       101-2.61859E-09-1.32259E-05 2.46153E-08
 -1       103 2.61859E-09 1.32259E-05-2.46153E-08
 -1       104-1.32783E-05-2.66227E-05-2.65033E-03
 -1       106 1.32783E-05 2.64325E-05-2.65059E-03
 -1       107 1.32783E-05-2.66227E-05-2.65033E-03
 -1       109-1.32783E-05 2.64325E-05-2.65059E-03
 -1       112 2.66227E-05 1.32783E-05-2.65033E-03
 -1       114-2.64325E-05-1.32783E-05-2.65059E-03
 -1       115 2.66227E-05-1.32783E-05-2.65033E-03
 -1       117-2.64325E-05 1.32783E-05-2.65059E-03
 -1       120 1.32783E-05 2.66227E-05-2.65033E-03
 -1       122-1.32783E-05-2.64325E-05-2.65059E-03
 -1       123-1.32783E-05 2.66227E-05-2.65033E-03
 -1       125 1.32783E-05-2.64325E-05-2.65059E-03
 -1       128-2.66227E-05 1.32783E-05-2.65033E-03
 -1       130 2.64325E-05-1.32783E-05-2.65059E-03
 -1       131-2.66227E-05-1.32783E-05-2.65033E-03
 -1       133 2.64325E-05 1.32783E-05-2.65059E-03
 -3
    1PSTEP                         2           1           1          
  100CL  101 1.000000000          80                     0    1           1
 -4  STRESS      6    1
 -5  SXX         1    4    1    1
 -5  SYY         1    4    2    2
 -5  SZZ         1    4    3    3
 -5  SXY         1    4    1    2
 -5  SYZ         1    4    2    3
 -5  SZX         1    4    3    1
 -1        22 4.31944E+00 4.31944E+00 1.88210E-03-2.02064E+00 1.78072E-01 1.78072E-01
 -1        23 4.34914E+00 4.34914E+00-3.02316E-03 2.28187E+00 7.77895E-02 7.77895E-02
 -1        24 4.38472E+00 4.38472E+00-4.51164E-03 6.58590E+00-2.24656E-02-2.24656E-02
 -1        25 4.31944E+00 4.31944E+00 1.88209E-03 2.02064E+00 1.78072E-01-1.78072E-01
 -1        26 4.34914E+00 4.34914E+00-3.02316E-03-2.28187E+00 7.77895E-02-7.77895E-02
 -1        27 4.38472E+00 4.38472E+00-4.51164E-03-6.58590E+00-2.24656E-02 2.24656E-02
 -1        28 4.31944E+00 4.31944E+00 1.88210E-03-2.02064E+00-1.78072E-01-1.78072E-01
 -1        29 4.34914E+00 4.34914E+00-3.02316E-03 2.28187E+00-7.77895E-02-7.77895E-02
 -1        30 4.38472E+00 4.38472E+00-4.51164E-03 6.58590E+00 2.24656E-02 2.24656E-02
 -1        31 4.31944E+00 4.31944E+00 1.88209E-03 2.02064E+00-1.78072E-01 1.78072E-01
 -1        32 4.34914E+00 4.34914E+00-3.02316E-03-2.28187E+00-7.77895E-02 7.77895E-02
 -1        33 4.38472E+00 4.38472E+00-4.51164E-03-6.58590E+00 2.24656E-02-2.24656E-02
 -1        36 3.12328E+00 9.37092E-01-2.14015E-03-4.28457E+00-1.01673E-01-2.96312E-02
 -1        37 3.14519E+00 9.44175E-01-6.63303E-04 6.60083E-05-4.18347E-02 5.84843E-02
 -1        38 3.17111E+00 9.52785E-01 2.36350E-03 4.28497E+00 1.80278E-02 1.46640E-01
 -1        39 3.12328E+00 9.37092E-01-2.14015E-03 4.28457E+00 1.01673E-01-2.96312E-02
 -1        40 3.14519E+00 9.44175E-01-6.63303E-04-6.60083E-05 4.18347E-02 5.84843E-02
 -1        41 3.17111E+00 9.52785E-01 2.36350E-03-4.28497E+00-1.80278E-02 1.46640E-01
 -1        44 1.21073E-03 1.21073E-03 2.99111E-04-4.26800E+00-4.16554E-02-4.16554E-02
 -1        45 1.39215E-03 1.39215E-03 4.63747E-04 4.65708E-04-4.17417E-02-4.17417E-02
 -1        46 1.23118E-03 1.23118E-03 3.11681E-04 4.26796E+00-4.18173E-02-4.18173E-02
 -1        47 9.37092E-01 3.12328E+00-2.14015E-03-4.28457E+00-2.96312E-02-1.01673E-01
 -1        48 9.44175E-01 3.14519E+00-6.63303E-04 6.60083E-05 5.84843E-02-4.18347E-02
 -1        49 9.52785E-01 3.17111E+00 2.36350E-03 4.28497E+00 1.46640E-01 1.80278E-02
 -1        50 9.37092E-01 3.12328E+00-2.14015E-03 4.28457E+00-2.96312E-02 1.01673E-01
 -1        51 9.44175E-01 3.14519E+00-6.63303E-04-6.60083E-05 5.84843E-02 4.18347E-02
 -1        52 9.52785E-01 3.17111E+00 2.36350E-03-4.28497E+00 1.46640E-01-1.80278E-02
 -1        55 1.21073E-03 1.21073E-03 2.99111E-04 4.26800E+00-4.16554E-02 4.16554E-02
 -1        56 1.39215E-03 1.39215E-03 4.63747E-04-4.65708E-04-4.17417E-02 4.17417E-02
 -1        57 1.23118E-03 1.23118E-03 3.11681E-04-4.26796E+00-4.18173E-02 4.18173E-02
 -1        58 3.12328E+00 9.37092E-01-2.14015E-03 4.28457E+00-1.01673E-01 2.96312E-02
 -1        59 3.14519E+00 9.44175E-01-6.63303E-04-6.60083E-05-4.18347E-02-5.84843E-02
 -1        60 3.17111E+00 9.52785E-01 2.36350E-03-4.28497E+00 1.80278E-02-1.46640E-01
 -1        61 3.12328E+00 9.37092E-01-2.14015E-03-4.28457E+00 1.01673E-01 2.96312E-02
 -1        62 3.14519E+00 9.44175E-01-6.63303E-04 6.60083E-05 4.18347E-02-5.84843E-02
 -1        63 3.17111E+00 9.52785E-01 2.36350E-03 4.28497E+00-1.80278E-02-1.46640E-01
 -1        66 1.21073E-03 1.21073E-03 2.99111E-04-4.26800E+00 4.16554E-02 4.16554E-02
 -1        67 1.39215E-03 1.39215E-03 4.63747E-04 4.65708E-04 4.17417E-02 4.17417E-02
 -1        68 1.23118E-03 1.23118E-03 3.11681E-04 4.26796E+00 4.18173E-02 4.18173E-02
 -1        69 9.37092E-01 3.12328E+00-2.14015E-03-4.28457E+00 2.96312E-02 1.01673E-01
 -1        70 9.44175E-01 3.14519E+00-6.63303E-04 6.60083E-05-5.84843E-02 4.18347E-02
 -1        71 9.52785E-01 3.17111E+00 2.36350E-03 4.28497E+00-1.46640E-01-1.80278E-02
 -1        72 9.37092E-01 3.12328E+00-2.14015E-03 4.28457E+00 2.96312E-02-1.01673E-01
 -1        73 9.44175E-01 3.14519E+00-6.63303E-04-6.60083E-05-5.84843E-02-4.18347E-02
 -1        74 9.52785E-01 3.17111E+00 2.36350E-03-4.28497E+00-1.46640E-01 1.80278E-02
 -1        77 1.21073E-03 1.21073E-03 2.99111E-04 4.26800E+00 4.16554E-02-4.16554E-02
 -1        78 1.39215E-03 1.39215E-03 4.63747E-04-4.65708E-04 4.17417E-02-4.17417E-02
 -1        79 1.23118E-03 1.23118E-03 3.11681E-04-4.26796E+00 4.18173E-02-4.18173E-02
 -1        80 2.25669E-01 7.51360E-01-1.98728E-03 4.28394E+00 4.21198E-02-7.17516E-02
 -1        82 2.33876E-01 7.76109E-01 6.20888E-04-4.26885E+00-4.58632E-02-1.20161E-02
 -1        83 7.51360E-01 2.25669E-01-1.98728E-03 4.28394E+00 7.17516E-02-4.21198E-02
 -1        85 7.76109E-01 2.33876E-01 6.20888E-04-4.26885E+00 1.20161E-02 4.58632E-02
 -1        86 7.51360E-01 2.25669E-01-1.98728E-03-4.28394E+00-7.17516E-02-4.21198E-02
 -1        88 7.76109E-01 2.33876E-01 6.20888E-04 4.26885E+00-1.20161E-02 4.58632E-02
 -1        89 2.25669E-01 7.51360E-01-1.98728E-03-4.28394E+00-4.21198E-02-7.17516E-02
 -1        91 2.33876E-01 7.76109E-01 6.20888E-04 4.26885E+00 4.58632E-02-1.20161E-02
 -1        92 2.25669E-01 7.51360E-01-1.98728E-03 4.28394E+00-4.21198E-02 7.17516E-02
 -1        94 2.33876E-01 7.76109E-01 6.20888E-04-4.26885E+00 4.58632E-02 1.20161E-02
 -1        95 7.51360E-01 2.25669E-01-1.98728E-03 4.28394E+00-7.17516E-02 4.21198E-02
 -1        97 7.76109E-01 2.33876E-01 6.20888E-04-4.26885E+00-1.20161E-02-4.58632E-02
 -1        98 7.51360E-01 2.25669E-01-1.98728E-03-4.28394E+00 7.17516E-02 4.21198E-02
 -1       100 7.76109E-01 2.33876E-01 6.20888E-04 4.26885E+00 1.20161E-02-4.58632E-02
 -1       101 2.25669E-01 7.51360E-01-1.98728E-03-4.28394E+00 4.21198E-02 7.17516E-02
 -1       103 2.33876E-01 7.76109E-01 6.20888E-04 4.26885E+00-4.58632E-02 1.20161E-02
 -1       104 1.81343E+00 3.47777E+00 2.35479E-03-3.16330E+00-6.97902E-02-3.12541E-02
 -1       106 1.85242E+00 3.53368E+00 7.63515E-04 5.42411E+00-5.76210E-02 9.24262E-03
 -1       107 1.81343E+00 3.47777E+00 2.35479E-03 3.16330E+00-6.97902E-02 3.12541E-02
 -1       109 1.85242E+00 3.53368E+00 7.63515E-04-5.42411E+00-5.76210E-02-9.24262E-03
 -1       112 3.47777E+00 1.81343E+00 2.35479E-03-3.16330E+00 3.12541E-02 6.97902E-02
 -1       114 3.53368E+00 1.85242E+00 7.63515E-04 5.42411E+00-9.24262E-03 5.76210E-02
 -1       115 3.47777E+00 1.81343E+00 2.35479E-03 3.16330E+00-3.12541E-02 6.97902E-02
 -1       117 3.53368E+00 1.85242E+00 7.63515E-04-5.42411E+00 9.24262E-03 5.76210E-02
 -1       120 1.81343E+00 3.47777E+00 2.35479E-03-3.16330E+00 6.97902E-02 3.12541E-02
 -1       122 1.85242E+00 3.53368E+00 7.63515E-04 5.42411E+00 5.76210E-02-9.24262E-03
 -1       123 1.81343E+00 3.47777E+00 2.35479E-03 3.16330E+00 6.97902E-02-3.12541E-02
 -1       125 1.85242E+00 3.53368E+00 7.63515E-04-5.42411E+00 5.76210E-02 9.24262E-03
 -1       128 3.47777E+00 1.81343E+00 2.35479E-03 3.16330E+00 3.12541E-02-6.97902E-02
 -1       130 3.53368E+00 1.85242E+00 7.63515E-04-5.42411E+00-9.24262E-03-5.76210E-02
 -1       131 3.47777E+00 1.81343E+00 2.35479E-03-3.16330E+00-3.12541E-02-6.97902E-02
 -1       133 3.53368E+00 1.85242E+00 7.63515E-04 5.42411E+00 9.24262E-03-5.76210E-02
 -3
    1PSTEP                         3           1           1          
  100CL  101 1.000000000          80                     0    1           1
 -4  FORC        4    1
 -5  F1          1    2    1    0
 -5  F2          1    2    2    0
 -5  F3          1    2    3    0
 -5  ALL         1    2    0    0    1ALL
 -1        22-5.85277E-03-5.85277E-03-1.24995E-04
 -1        23-6.50763E-10-6.50781E-10-3.23620E-11
 -1        24-5.85277E-03-5.85277E-03-1.25005E-04
 -1        25 5.85277E-03-5.85277E-03-1.24995E-04
 -1        26 6.50792E-10-6.50764E-10-2.14471E-11
 -1        27 5.85277E-03-5.85277E-03-1.25005E-04
 -1        28 5.85277E-03 5.85277E-03-1.24995E-04
 -1        29 6.50823E-10 6.50760E-10-1.65938E-11
 -1        30 5.85277E-03 5.85277E-03-1.25005E-04
 -1        31-5.85277E-03 5.85277E-03-1.24995E-04
 -1        32-6.50721E-10 6.50711E-10-3.54968E-11
 -1        33-5.85277E-03 5.85277E-03-1.25005E-04
 -1        36 1.16381E-03-1.16776E-03 7.37196E-05
 -1        37 6.40021E-10-9.82601E-11 6.87523E-12
 -1        38 1.16381E-03-1.16776E-03 7.36952E-05
 -1        39 1.16381E-03 1.16776E-03 7.37196E-05
 -1        40 6.40059E-10 9.82419E-11 7.55629E-12
 -1        41 1.16381E-03 1.16776E-03 7.36952E-05
 -1        44-1.20672E-03-1.20672E-03 4.80407E-05
 -1        45-6.00983E-04-6.00983E-04-2.64760E-04
 -1        46-1.20672E-03-1.20672E-03 4.80005E-05
 -1        47-1.16776E-03 1.16381E-03 7.37196E-05
 -1        48-9.82439E-11 6.40026E-10 8.73580E-12
 -1        49-1.16776E-03 1.16381E-03 7.36952E-05
 -1        50 1.16776E-03 1.16381E-03 7.37196E-05
 -1        51 9.82582E-11 6.40041E-10 8.37840E-12
 -1        52 1.16776E-03 1.16381E-03 7.36952E-05
 -1        55 1.20672E-03-1.20672E-03 4.80407E-05
 -1        56 6.00983E-04-6.00983E-04-2.64760E-04
 -1        57 1.20672E-03-1.20672E-03 4.80005E-05
 -1        58-1.16381E-03-1.16776E-03 7.37195E-05
 -1        59-6.40012E-10-9.82500E-11 1.30643E-11
 -1        60-1.16381E-03-1.16776E-03 7.36952E-05
 -1        61-1.16381E-03 1.16776E-03 7.37195E-05
 -1        62-6.40030E-10 9.82416E-11 8.45977E-12
 -1        63-1.16381E-03 1.16776E-03 7.36952E-05
 -1        66 1.20672E-03 1.20672E-03 4.80407E-05
 -1        67 6.00983E-04 6.00983E-04-2.64760E-04
 -1        68 1.20672E-03 1.20672E-03 4.80005E-05
 -1        69 1.16776E-03-1.16381E-03 7.37196E-05
 -1        70 9.82463E-11-6.40042E-10 7.58044E-12
 -1        71 1.16776E-03-1.16381E-03 7.36952E-05
 -1        72-1.16776E-03-1.16381E-03 7.37195E-05
 -1        73-9.82436E-11-6.40039E-10 1.06275E-11
 -1        74-1.16776E-03-1.16381E-03 7.36952E-05
 -1        77-1.20672E-03 1.20672E-03 4.80407E-05
 -1        78-6.00983E-04 6.00983E-04-2.64760E-04
 -1        79-1.20672E-03 1.20672E-03 4.80005E-05
 -1        80 3.56762E-03-5.58868E-03 3.09288E-05
 -1        82 3.56762E-03-5.58868E-03 3.10159E-05
 -1        83 5.58868E-03-3.56762E-03 3.09288E-05
 -1        85 5.58868E-03-3.56762E-03 3.10159E-05
 -1        86 5.58868E-03 3.56762E-03 3.09288E-05
 -1        88 5.58868E-03 3.56762E-03 3.10159E-05
 -1        89 3.56762E-03 5.58868E-03 3.09288E-05
 -1        91 3.56762E-03 5.58868E-03 3.10159E-05
 -1        92-3.56762E-03 5.58868E-03 3.09288E-05
 -1        94-3.56762E-03 5.58868E-03 3.10159E-05
 -1        95-5.58868E-03 3.56762E-03 3.09288E-05
 -1        97-5.58868E-03 3.56762E-03 3.10159E-05
 -1        98-5.58868E-03-3.56762E-03 3.09288E-05
 -1       100-5.58868E-03-3.56762E-03 3.10159E-05
 -1       101-3.56762E-03-5.58868E-03 3.09288E-05
 -1       103-3.56762E-03-5.58868E-03 3.10159E-05
 -1       104 1.79237E-03-8.15248E-10-7.37221E-08
 -1       106 1.79237E-03 4.79175E-10 7.37210E-08
 -1       107-1.79237E-03-8.15182E-10-7.37262E-08
 -1       109-1.79237E-03 4.79127E-10 7.37251E-08
 -1       112 8.15222E-10-1.79237E-03-7.37270E-08
 -1       114-4.79142E-10-1.79237E-03 7.37259E-08
 -1       115 8.15214E-10 1.79237E-03-7.37251E-08
 -1       117-4.79148E-10 1.79237E-03 7.37240E-08
 -1       120-1.79237E-03 8.15221E-10-7.37264E-08
 -1       122-1.79237E-03-4.79131E-10 7.37253E-08
 -1       123 1.79237E-03 8.15224E-10-7.37246E-08
 -1       125 1.79237E-03-4.79180E-10 7.37235E-08
 -1       128-8.15228E-10-1.79237E-03-7.37231E-08
 -1       130 4.79165E-10-1.79237E-03 7.37220E-08
 -1       131-8.15239E-10 1.79237E-03-7.37250E-08
 -1       133 4.79202E-10 1.79237E-03 7.37239E-08
 -3
 9999
