    1C
    1UUSER                                                              
    1UDATE              15.december.2018                                
    1UTIME              15:53:03                                        
    1UHOST                                                              
    1UPGM               CalculiX                                        
    1UVERSION           Version 2.15                             
    1UCOMPILETIME       Sa 15. Dez 14:32:01 CET 2018                    
    1UDIR                                                               
    1UDBN                                                               
    1UMAT    1EL                                                        
    2C                            32                                     1
 -1        10 0.00000E+00 0.00000E+00-5.00000E-03
 -1        12 0.00000E+00 0.00000E+00 5.00000E-03
 -1        13 0.00000E+00 0.00000E+00-5.00000E-03
 -1        15 0.00000E+00 0.00000E+00 5.00000E-03
 -1        16 0.00000E+00 0.00000E+00-5.00000E-03
 -1        18 0.00000E+00 0.00000E+00 5.00000E-03
 -1        19 0.00000E+00 0.00000E+00-5.00000E-03
 -1        21 0.00000E+00 0.00000E+00 5.00000E-03
 -1        24 1.00000E+00 0.00000E+00-5.00000E-03
 -1        26 1.00000E+00 0.00000E+00 5.00000E-03
 -1        27 1.00000E+00 0.00000E+00-5.00000E-03
 -1        29 1.00000E+00 0.00000E+00 5.00000E-03
 -1        32 1.00000E+00 1.00000E+00-5.00000E-03
 -1        34 1.00000E+00 1.00000E+00 5.00000E-03
 -1        35 0.00000E+00 1.00000E+00-5.00000E-03
 -1        37 0.00000E+00 1.00000E+00 5.00000E-03
 -1        38 0.00000E+00 1.00000E+00-5.00000E-03
 -1        40 0.00000E+00 1.00000E+00 5.00000E-03
 -1        43-1.00000E+00 1.00000E+00-5.00000E-03
 -1        45-1.00000E+00 1.00000E+00 5.00000E-03
 -1        46-1.00000E+00 0.00000E+00-5.00000E-03
 -1        48-1.00000E+00 0.00000E+00 5.00000E-03
 -1        49-1.00000E+00 0.00000E+00-5.00000E-03
 -1        51-1.00000E+00 0.00000E+00 5.00000E-03
 -1        54-1.00000E+00-1.00000E+00-5.00000E-03
 -1        56-1.00000E+00-1.00000E+00 5.00000E-03
 -1        57 0.00000E+00-1.00000E+00-5.00000E-03
 -1        59 0.00000E+00-1.00000E+00 5.00000E-03
 -1        60 0.00000E+00-1.00000E+00-5.00000E-03
 -1        62 0.00000E+00-1.00000E+00 5.00000E-03
 -1        65 1.00000E+00-1.00000E+00-5.00000E-03
 -1        67 1.00000E+00-1.00000E+00 5.00000E-03
 -3
    3C                             4                                     1
 -1         1    1    0    1
 -2        10        24        32        35        12        26        34        37
 -1         2    1    0    1
 -2        13        38        43        46        15        40        45        48
 -1         3    1    0    1
 -2        16        49        54        57        18        51        56        59
 -1         4    1    0    1
 -2        19        60        65        27        21        62        67        29
 -3
    1PSTEP                         1           1           1          
  100CL  101 1.000000000          32                     0    1           1
 -4  DISP        4    1
 -5  D1          1    2    1    0
 -5  D2          1    2    2    0
 -5  D3          1    2    3    0
 -5  ALL         1    2    0    0    1ALL
 -1        10 2.66329E-05 2.66329E-05-5.32711E-03
 -1        12-2.66329E-05-2.66329E-05-5.32745E-03
 -1        13-2.66329E-05 2.66329E-05-5.32711E-03
 -1        15 2.66329E-05-2.66329E-05-5.32745E-03
 -1        16-2.66329E-05-2.66329E-05-5.32711E-03
 -1        18 2.66329E-05 2.66329E-05-5.32745E-03
 -1        19 2.66329E-05-2.66329E-05-5.32711E-03
 -1        21-2.66329E-05 2.66329E-05-5.32745E-03
 -1        24 2.66335E-05 2.75310E-09 6.75681E-08
 -1        26-2.66335E-05-2.75310E-09-6.75681E-08
 -1        27 2.66335E-05-2.75310E-09 6.75681E-08
 -1        29-2.66335E-05 2.75310E-09-6.75681E-08
 -1        32 2.75305E-09 2.75305E-09-3.37730E-08
 -1        34-2.75305E-09-2.75305E-09 3.37730E-08
 -1        35 2.75310E-09 2.66335E-05 6.75681E-08
 -1        37-2.75310E-09-2.66335E-05-6.75681E-08
 -1        38-2.75310E-09 2.66335E-05 6.75681E-08
 -1        40 2.75310E-09-2.66335E-05-6.75681E-08
 -1        43-2.75305E-09 2.75305E-09-3.37730E-08
 -1        45 2.75305E-09-2.75305E-09 3.37730E-08
 -1        46-2.66335E-05 2.75310E-09 6.75681E-08
 -1        48 2.66335E-05-2.75310E-09-6.75681E-08
 -1        49-2.66335E-05-2.75310E-09 6.75681E-08
 -1        51 2.66335E-05 2.75310E-09-6.75681E-08
 -1        54-2.75305E-09-2.75305E-09-3.37730E-08
 -1        56 2.75305E-09 2.75305E-09 3.37730E-08
 -1        57-2.75310E-09-2.66335E-05 6.75681E-08
 -1        59 2.75310E-09 2.66335E-05-6.75681E-08
 -1        60 2.75310E-09-2.66335E-05 6.75681E-08
 -1        62-2.75310E-09 2.66335E-05-6.75681E-08
 -1        65 2.75305E-09-2.75305E-09-3.37730E-08
 -1        67-2.75305E-09 2.75305E-09 3.37730E-08
 -3
    1PSTEP                         2           1           1          
  100CL  101 1.000000000          32                     0    1           1
 -4  STRESS      6    1
 -5  SXX         1    4    1    1
 -5  SYY         1    4    2    2
 -5  SZZ         1    4    3    3
 -5  SXY         1    4    1    2
 -5  SYZ         1    4    2    3
 -5  SZX         1    4    3    1
 -1        10 3.54701E+00 3.54701E+00 6.36946E-04-2.01030E+00 4.95358E-02 4.95358E-02
 -1        12 3.54733E+00 3.54733E+00 9.85848E-04 6.59370E+00 8.88308E-02 8.88308E-02
 -1        13 3.54701E+00 3.54701E+00 6.36946E-04 2.01030E+00 4.95358E-02-4.95358E-02
 -1        15 3.54733E+00 3.54733E+00 9.85848E-04-6.59370E+00 8.88308E-02-8.88308E-02
 -1        16 3.54701E+00 3.54701E+00 6.36946E-04-2.01030E+00-4.95358E-02-4.95358E-02
 -1        18 3.54733E+00 3.54733E+00 9.85848E-04 6.59370E+00-8.88308E-02-8.88308E-02
 -1        19 3.54701E+00 3.54701E+00 6.36946E-04 2.01030E+00-4.95358E-02 4.95358E-02
 -1        21 3.54733E+00 3.54733E+00 9.85848E-04-6.59370E+00-8.88308E-02 8.88308E-02
 -1        24 2.56490E+00 2.73070E-01-3.24521E-07-4.30169E+00-6.55715E-02 4.35576E-02
 -1        26 2.56472E+00 2.73070E-01 1.74055E-04 4.30212E+00-2.62793E-02 5.99226E-02
 -1        27 2.56490E+00 2.73070E-01-3.24526E-07 4.30169E+00 6.55715E-02 4.35576E-02
 -1        29 2.56472E+00 2.73070E-01 1.74055E-04-4.30212E+00 2.62793E-02 5.99226E-02
 -1        32-7.09326E-01-7.09326E-01-4.51799E-04-4.30183E+00-5.41087E-02-5.41087E-02
 -1        34-7.09326E-01-7.09326E-01-4.51806E-04 4.30179E+00-3.77430E-02-3.77430E-02
 -1        35 2.73070E-01 2.56490E+00-3.24531E-07-4.30169E+00 4.35576E-02-6.55715E-02
 -1        37 2.73070E-01 2.56472E+00 1.74055E-04 4.30212E+00 5.99226E-02-2.62793E-02
 -1        38 2.73070E-01 2.56490E+00-3.24515E-07 4.30169E+00 4.35576E-02 6.55715E-02
 -1        40 2.73070E-01 2.56472E+00 1.74055E-04-4.30212E+00 5.99226E-02 2.62793E-02
 -1        43-7.09326E-01-7.09326E-01-4.51799E-04 4.30183E+00-5.41087E-02 5.41087E-02
 -1        45-7.09326E-01-7.09326E-01-4.51806E-04-4.30179E+00-3.77430E-02 3.77430E-02
 -1        46 2.56490E+00 2.73070E-01-3.24526E-07 4.30169E+00-6.55715E-02-4.35576E-02
 -1        48 2.56472E+00 2.73070E-01 1.74055E-04-4.30212E+00-2.62793E-02-5.99226E-02
 -1        49 2.56490E+00 2.73070E-01-3.24522E-07-4.30169E+00 6.55715E-02-4.35576E-02
 -1        51 2.56472E+00 2.73070E-01 1.74055E-04 4.30212E+00 2.62793E-02-5.99226E-02
 -1        54-7.09326E-01-7.09326E-01-4.51799E-04-4.30183E+00 5.41087E-02 5.41087E-02
 -1        56-7.09326E-01-7.09326E-01-4.51806E-04 4.30179E+00 3.77430E-02 3.77430E-02
 -1        57 2.73070E-01 2.56490E+00-3.24533E-07-4.30169E+00-4.35576E-02 6.55715E-02
 -1        59 2.73070E-01 2.56472E+00 1.74055E-04 4.30212E+00-5.99226E-02 2.62793E-02
 -1        60 2.73070E-01 2.56490E+00-3.24515E-07 4.30169E+00-4.35576E-02-6.55715E-02
 -1        62 2.73070E-01 2.56472E+00 1.74055E-04-4.30212E+00-5.99226E-02-2.62793E-02
 -1        65-7.09326E-01-7.09326E-01-4.51799E-04 4.30183E+00 5.41087E-02-5.41087E-02
 -1        67-7.09326E-01-7.09326E-01-4.51806E-04-4.30179E+00 3.77430E-02-3.77430E-02
 -3
    1PSTEP                         3           1           1          
  100CL  101 1.000000000          32                     0    1           1
 -4  FORC        4    1
 -5  F1          1    2    1    0
 -5  F2          1    2    2    0
 -5  F3          1    2    3    0
 -5  ALL         1    2    0    0    1ALL
 -1        10-6.82192E-03-6.82192E-03-1.25059E-04
 -1        12-6.82192E-03-6.82192E-03-1.24941E-04
 -1        13 6.82192E-03-6.82192E-03-1.25059E-04
 -1        15 6.82192E-03-6.82192E-03-1.24941E-04
 -1        16 6.82192E-03 6.82192E-03-1.25059E-04
 -1        18 6.82192E-03 6.82192E-03-1.24941E-04
 -1        19-6.82192E-03 6.82192E-03-1.25059E-04
 -1        21-6.82192E-03 6.82192E-03-1.24941E-04
 -1        24 3.95664E-03-2.73073E-04 8.86187E-05
 -1        26 3.95664E-03-2.73073E-04 8.86968E-05
 -1        27 3.95664E-03 2.73073E-04 8.86187E-05
 -1        29 3.95664E-03 2.73073E-04 8.86968E-05
 -1        32 3.13835E-03 3.13835E-03-5.23350E-05
 -1        34 3.13835E-03 3.13835E-03-5.22960E-05
 -1        35-2.73073E-04 3.95664E-03 8.86187E-05
 -1        37-2.73073E-04 3.95664E-03 8.86968E-05
 -1        38 2.73073E-04 3.95664E-03 8.86187E-05
 -1        40 2.73073E-04 3.95664E-03 8.86968E-05
 -1        43-3.13835E-03 3.13835E-03-5.23350E-05
 -1        45-3.13835E-03 3.13835E-03-5.22960E-05
 -1        46-3.95664E-03-2.73073E-04 8.86187E-05
 -1        48-3.95664E-03-2.73073E-04 8.86968E-05
 -1        49-3.95664E-03 2.73073E-04 8.86187E-05
 -1        51-3.95664E-03 2.73073E-04 8.86968E-05
 -1        54-3.13835E-03-3.13835E-03-5.23350E-05
 -1        56-3.13835E-03-3.13835E-03-5.22960E-05
 -1        57 2.73073E-04-3.95664E-03 8.86187E-05
 -1        59 2.73073E-04-3.95664E-03 8.86968E-05
 -1        60-2.73073E-04-3.95664E-03 8.86187E-05
 -1        62-2.73073E-04-3.95664E-03 8.86968E-05
 -1        65 3.13835E-03-3.13835E-03-5.23350E-05
 -1        67 3.13835E-03-3.13835E-03-5.22960E-05
 -3
 9999
