
 displacements (vx,vy,vz) for set NALL and time  0.1000000E-02

         1  4.709846E-11  0.000000E+00 -1.000000E-02 L
         2  4.715198E-11  0.000000E+00 -1.000000E-02 L
         3  4.693342E-11  0.000000E+00 -1.000000E-02 L
         4  4.663974E-11  0.000000E+00 -1.000000E-02 L
         5  4.618201E-11  0.000000E+00 -1.000000E-02 L
         6  4.549677E-11  0.000000E+00 -1.000000E-02 L
         7  4.447698E-11  0.000000E+00 -1.000000E-02 L
         8  4.295106E-11  0.000000E+00 -1.000000E-02 L
         9  4.065644E-11  0.000000E+00 -1.000000E-02 L
        10  3.720867E-11  0.000000E+00 -1.000000E-02 L
        11  3.207002E-11  0.000000E+00 -1.000000E-02 L
        12  2.452121E-11  0.000000E+00 -1.000000E-02 L
        13  1.364686E-11  0.000000E+00 -1.000000E-02 L
        14 -1.664849E-12  0.000000E+00 -1.000000E-02 L
        15 -2.265693E-11  0.000000E+00 -1.000000E-02 L
        16 -5.073217E-11  0.000000E+00 -1.000000E-02 L
        17 -8.886361E-11  0.000000E+00 -1.000000E-02 L
        18 -1.376239E-10  0.000000E+00 -1.000000E-02 L
        19 -1.873278E-10  0.000000E+00 -1.000000E-02 L
        20 -3.797877E-10  0.000000E+00 -1.000000E-02 L
        21 -1.061649E-09  0.000000E+00 -1.000000E-02 L
        22  2.473754E-09  0.000000E+00 -9.999993E-03 L
        23  3.337661E-09  0.000000E+00 -9.999990E-03 L
        24  4.035156E-09  0.000000E+00 -9.999988E-03 L
        25  4.732484E-09  0.000000E+00 -9.999987E-03 L
        26  5.425387E-09  0.000000E+00 -9.999985E-03 L
        27  6.121316E-09  0.000000E+00 -9.999984E-03 L
        28  6.818284E-09  0.000000E+00 -9.999982E-03 L
        29  7.514461E-09  0.000000E+00 -9.999980E-03 L
        30  8.206232E-09  0.000000E+00 -9.999977E-03 L
        31  8.890949E-09  0.000000E+00 -9.999974E-03 L
        32  9.542111E-09  0.000000E+00 -9.999971E-03 L
        33  1.012072E-08  0.000000E+00 -9.999965E-03 L
        34  9.575625E-09  0.000000E+00 -9.999957E-03 L
        35  5.318584E-09  0.000000E+00 -9.999932E-03 L
        36  3.475657E-09  0.000000E+00 -9.999960E-03 L
        37  3.973816E-09  0.000000E+00 -9.999967E-03 L
        38  5.755843E-09  0.000000E+00 -9.999972E-03 L
        39  7.311208E-09  0.000000E+00 -9.999974E-03 L
        40  8.613879E-09  0.000000E+00 -9.999976E-03 L
        41  9.620361E-09  0.000000E+00 -9.999977E-03 L
        42  1.032752E-08  0.000000E+00 -9.999978E-03 L
        43  1.073242E-08  0.000000E+00 -9.999979E-03 L
        44  1.084229E-08  0.000000E+00 -9.999979E-03 L
        45  1.071880E-08  0.000000E+00 -9.999980E-03 L
        46  1.046905E-08  0.000000E+00 -9.999981E-03 L
        47  1.016927E-08  0.000000E+00 -9.999982E-03 L
        48  9.863964E-09  0.000000E+00 -9.999984E-03 L
        49  9.576632E-09  0.000000E+00 -9.999985E-03 L
        50  9.318815E-09  0.000000E+00 -9.999987E-03 L
        51  9.095308E-09  0.000000E+00 -9.999988E-03 L
        52  8.907126E-09  0.000000E+00 -9.999990E-03 L
        53  8.753521E-09  0.000000E+00 -9.999992E-03 L
        54  8.632864E-09  0.000000E+00 -9.999993E-03 L
        55  8.540676E-09  0.000000E+00 -9.999995E-03 L
        56  8.476688E-09  0.000000E+00 -9.999997E-03 L
        57  8.439150E-09  0.000000E+00 -9.999998E-03 L
        58  8.426702E-09  0.000000E+00 -1.000000E-02 L
        59  7.899335E-09  0.000000E+00 -1.000000E-02 L
        60  7.375760E-09  0.000000E+00 -1.000000E-02 L
        61  6.854176E-09  0.000000E+00 -1.000000E-02 L
        62  6.333174E-09  0.000000E+00 -1.000000E-02 L
        63  5.812231E-09  0.000000E+00 -1.000000E-02 L
        64  5.291955E-09  0.000000E+00 -1.000000E-02 L
        65  4.774044E-09  0.000000E+00 -1.000000E-02 L
        66  4.261423E-09  0.000000E+00 -1.000000E-02 L
        67  3.757785E-09  0.000000E+00 -1.000000E-02 L
        68  3.267261E-09  0.000000E+00 -1.000000E-02 L
        69  2.794030E-09  0.000000E+00 -1.000000E-02 L
        70  2.342023E-09  0.000000E+00 -1.000000E-02 L
        71  1.914685E-09  0.000000E+00 -1.000000E-02 L
        72  1.514890E-09  0.000000E+00 -1.000000E-02 L
        73  1.145067E-09  0.000000E+00 -1.000000E-02 L
        74  8.075110E-10  0.000000E+00 -1.000000E-02 L
        75  5.055207E-10  0.000000E+00 -1.000000E-02 L
        76  2.442344E-10  0.000000E+00 -1.000000E-02 L
        77  3.961184E-11  0.000000E+00 -1.000000E-02 L
        78  8.077437E-09  0.000000E+00 -9.999993E-03 L
        79  7.994197E-09  0.000000E+00 -9.999995E-03 L
        80  3.924749E-11  0.000000E+00 -9.999999E-03 L
        81  3.813223E-11  0.000000E+00 -9.999999E-03 L
        82  3.620565E-11  0.000000E+00 -9.999998E-03 L
        83  3.338840E-11  0.000000E+00 -9.999998E-03 L
        84  2.961858E-11  0.000000E+00 -9.999997E-03 L
        85  2.490940E-11  0.000000E+00 -9.999997E-03 L
        86  1.943458E-11  0.000000E+00 -9.999996E-03 L
        87  1.364719E-11  0.000000E+00 -9.999996E-03 L
        88  8.431784E-12  0.000000E+00 -9.999995E-03 L
        89  5.281659E-12  0.000000E+00 -9.999995E-03 L
        90  6.475670E-12  0.000000E+00 -9.999995E-03 L
        91  1.521112E-11  0.000000E+00 -9.999995E-03 L
        92  3.563277E-11  0.000000E+00 -9.999994E-03 L
        93  7.273837E-11  0.000000E+00 -9.999994E-03 L
        94  1.320839E-10  0.000000E+00 -9.999994E-03 L
        95  2.202956E-10  0.000000E+00 -9.999994E-03 L
        96  3.440123E-10  0.000000E+00 -9.999994E-03 L
        97  5.364893E-10  0.000000E+00 -9.999994E-03 L
        98  8.045088E-10  0.000000E+00 -9.999994E-03 L
        99  1.857379E-09  0.000000E+00 -9.999991E-03 L
       100  2.666016E-09  0.000000E+00 -9.999989E-03 L
       101  3.357604E-09  0.000000E+00 -9.999987E-03 L
       102  3.970050E-09  0.000000E+00 -9.999986E-03 L
       103  4.520057E-09  0.000000E+00 -9.999984E-03 L
       104  5.005307E-09  0.000000E+00 -9.999982E-03 L
       105  5.409048E-09  0.000000E+00 -9.999980E-03 L
       106  5.694400E-09  0.000000E+00 -9.999978E-03 L
       107  5.787229E-09  0.000000E+00 -9.999975E-03 L
       108  5.535220E-09  0.000000E+00 -9.999971E-03 L
       109  4.661588E-09  0.000000E+00 -9.999966E-03 L
       110  2.942824E-09  0.000000E+00 -9.999957E-03 L
       111  5.825736E-09  0.000000E+00 -9.999950E-03 L
       112  9.561004E-09  0.000000E+00 -9.999957E-03 L
       113  9.069667E-09  0.000000E+00 -9.999965E-03 L
       114  9.039823E-09  0.000000E+00 -9.999970E-03 L
       115  9.399820E-09  0.000000E+00 -9.999973E-03 L
       116  9.857353E-09  0.000000E+00 -9.999975E-03 L
       117  1.028095E-08  0.000000E+00 -9.999976E-03 L
       118  1.058875E-08  0.000000E+00 -9.999977E-03 L
       119  1.072994E-08  0.000000E+00 -9.999978E-03 L
       120  1.068375E-08  0.000000E+00 -9.999979E-03 L
       121  1.047406E-08  0.000000E+00 -9.999980E-03 L
       122  1.016754E-08  0.000000E+00 -9.999981E-03 L
       123  9.824662E-09  0.000000E+00 -9.999983E-03 L
       124  9.484526E-09  0.000000E+00 -9.999984E-03 L
       125  9.169581E-09  0.000000E+00 -9.999985E-03 L
       126  8.889335E-09  0.000000E+00 -9.999987E-03 L
       127  8.644831E-09  0.000000E+00 -9.999989E-03 L
       128  8.431742E-09  0.000000E+00 -9.999990E-03 L
       129  8.243776E-09  0.000000E+00 -9.999992E-03 L
       130  7.940019E-09  0.000000E+00 -9.999997E-03 L
       131  7.907865E-09  0.000000E+00 -9.999998E-03 L
       132  7.383534E-09  0.000000E+00 -9.999998E-03 L
       133  6.867918E-09  0.000000E+00 -9.999998E-03 L
       134  6.348990E-09  0.000000E+00 -9.999998E-03 L
       135  5.829870E-09  0.000000E+00 -9.999998E-03 L
       136  5.307747E-09  0.000000E+00 -9.999998E-03 L
       137  4.786419E-09  0.000000E+00 -9.999998E-03 L
       138  4.269957E-09  0.000000E+00 -9.999999E-03 L
       139  3.762847E-09  0.000000E+00 -9.999999E-03 L
       140  3.269456E-09  0.000000E+00 -9.999999E-03 L
       141  2.794021E-09  0.000000E+00 -9.999999E-03 L
       142  2.340429E-09  0.000000E+00 -9.999999E-03 L
       143  1.912084E-09  0.000000E+00 -9.999999E-03 L
       144  1.511809E-09  0.000000E+00 -9.999999E-03 L
       145  1.141981E-09  0.000000E+00 -9.999999E-03 L
       146  8.048099E-10  0.000000E+00 -9.999999E-03 L
       147  5.034938E-10  0.000000E+00 -9.999999E-03 L
       148  2.430404E-10  0.000000E+00 -9.999999E-03 L
       149  7.453338E-09  0.000000E+00 -9.999994E-03 L
       150  7.455964E-09  0.000000E+00 -9.999995E-03 L
       151  2.393793E-10  0.000000E+00 -9.999998E-03 L
       152  2.330280E-10  0.000000E+00 -9.999998E-03 L
       153  2.236621E-10  0.000000E+00 -9.999997E-03 L
       154  2.109378E-10  0.000000E+00 -9.999996E-03 L
       155  1.946242E-10  0.000000E+00 -9.999996E-03 L
       156  1.748060E-10  0.000000E+00 -9.999995E-03 L
       157  1.521722E-10  0.000000E+00 -9.999994E-03 L
       158  1.283980E-10  0.000000E+00 -9.999994E-03 L
       159  1.066063E-10  0.000000E+00 -9.999993E-03 L
       160  9.185486E-11  0.000000E+00 -9.999993E-03 L
       161  9.154399E-11  0.000000E+00 -9.999993E-03 L
       162  1.155977E-10  0.000000E+00 -9.999992E-03 L
       163  1.762796E-10  0.000000E+00 -9.999992E-03 L
       164  2.877925E-10  0.000000E+00 -9.999992E-03 L
       165  4.659740E-10  0.000000E+00 -9.999992E-03 L
       166  7.338178E-10  0.000000E+00 -9.999992E-03 L
       167  1.129372E-09  0.000000E+00 -9.999992E-03 L
       168  7.415341E-09  0.000000E+00 -9.999997E-03 L
       169  1.745412E-09  0.000000E+00 -9.999990E-03 L
       170  2.295498E-09  0.000000E+00 -9.999988E-03 L
       171  2.770454E-09  0.000000E+00 -9.999986E-03 L
       172  3.166920E-09  0.000000E+00 -9.999985E-03 L
       173  3.474309E-09  0.000000E+00 -9.999983E-03 L
       174  3.671977E-09  0.000000E+00 -9.999981E-03 L
       175  3.726992E-09  0.000000E+00 -9.999978E-03 L
       176  3.596477E-09  0.000000E+00 -9.999975E-03 L
       177  3.268713E-09  0.000000E+00 -9.999971E-03 L
       178  2.919364E-09  0.000000E+00 -9.999967E-03 L
       179  3.846015E-09  0.000000E+00 -9.999962E-03 L
       180  6.029404E-09  0.000000E+00 -9.999959E-03 L
       181  8.281125E-09  0.000000E+00 -9.999961E-03 L
       182  9.637453E-09  0.000000E+00 -9.999965E-03 L
       183  9.957297E-09  0.000000E+00 -9.999969E-03 L
       184  1.013114E-08  0.000000E+00 -9.999971E-03 L
       185  1.030113E-08  0.000000E+00 -9.999974E-03 L
       186  1.045283E-08  0.000000E+00 -9.999975E-03 L
       187  1.054275E-08  0.000000E+00 -9.999976E-03 L
       188  1.052719E-08  0.000000E+00 -9.999978E-03 L
       189  1.038519E-08  0.000000E+00 -9.999979E-03 L
       190  1.012842E-08  0.000000E+00 -9.999980E-03 L
       191  9.795099E-09  0.000000E+00 -9.999981E-03 L
       192  9.430343E-09  0.000000E+00 -9.999983E-03 L
       193  9.070753E-09  0.000000E+00 -9.999984E-03 L
       194  8.738664E-09  0.000000E+00 -9.999986E-03 L
       195  8.443640E-09  0.000000E+00 -9.999987E-03 L
       196  8.185703E-09  0.000000E+00 -9.999989E-03 L
       197  7.957712E-09  0.000000E+00 -9.999990E-03 L
       198  7.743265E-09  0.000000E+00 -9.999992E-03 L
       199  6.908844E-09  0.000000E+00 -9.999997E-03 L
       200  6.400032E-09  0.000000E+00 -9.999997E-03 L
       201  5.881716E-09  0.000000E+00 -9.999997E-03 L
       202  5.346578E-09  0.000000E+00 -9.999997E-03 L
       203  4.814315E-09  0.000000E+00 -9.999997E-03 L
       204  4.289040E-09  0.000000E+00 -9.999997E-03 L
       205  3.774160E-09  0.000000E+00 -9.999997E-03 L
       206  3.273946E-09  0.000000E+00 -9.999997E-03 L
       207  2.792820E-09  0.000000E+00 -9.999997E-03 L
       208  2.334919E-09  0.000000E+00 -9.999997E-03 L
       209  1.903766E-09  0.000000E+00 -9.999998E-03 L
       210  1.502191E-09  0.000000E+00 -9.999998E-03 L
       211  1.132437E-09  0.000000E+00 -9.999998E-03 L
       212  7.965008E-10  0.000000E+00 -9.999998E-03 L
       213  4.972691E-10  0.000000E+00 -9.999998E-03 L
       214  7.059668E-09  0.000000E+00 -9.999994E-03 L
       215  6.987990E-09  0.000000E+00 -9.999996E-03 L
       216  4.864358E-10  0.000000E+00 -9.999997E-03 L
       217  4.703790E-10  0.000000E+00 -9.999996E-03 L
       218  4.483990E-10  0.000000E+00 -9.999996E-03 L
       219  4.199118E-10  0.000000E+00 -9.999995E-03 L
       220  3.847571E-10  0.000000E+00 -9.999994E-03 L
       221  3.436554E-10  0.000000E+00 -9.999993E-03 L
       222  2.988250E-10  0.000000E+00 -9.999993E-03 L
       223  2.547612E-10  0.000000E+00 -9.999992E-03 L
       224  2.191075E-10  0.000000E+00 -9.999992E-03 L
       225  2.034654E-10  0.000000E+00 -9.999991E-03 L
       226  2.238978E-10  0.000000E+00 -9.999991E-03 L
       227  3.008968E-10  0.000000E+00 -9.999991E-03 L
       228  4.586892E-10  0.000000E+00 -9.999990E-03 L
       229  7.251212E-10  0.000000E+00 -9.999990E-03 L
       230  1.133661E-09  0.000000E+00 -9.999990E-03 L
       231  1.519512E-09  0.000000E+00 -9.999988E-03 L
       232  1.857441E-09  0.000000E+00 -9.999987E-03 L
       233  2.132625E-09  0.000000E+00 -9.999985E-03 L
       234  2.333589E-09  0.000000E+00 -9.999983E-03 L
       235  2.451841E-09  0.000000E+00 -9.999981E-03 L
       236  2.488265E-09  0.000000E+00 -9.999979E-03 L
       237  2.479116E-09  0.000000E+00 -9.999976E-03 L
       238  2.554649E-09  0.000000E+00 -9.999972E-03 L
       239  3.114150E-09  0.000000E+00 -9.999969E-03 L
       240  4.388678E-09  0.000000E+00 -9.999966E-03 L
       241  6.189488E-09  0.000000E+00 -9.999965E-03 L
       242  7.875522E-09  0.000000E+00 -9.999965E-03 L
       243  9.013376E-09  0.000000E+00 -9.999967E-03 L
       244  9.626473E-09  0.000000E+00 -9.999969E-03 L
       245  9.951725E-09  0.000000E+00 -9.999971E-03 L
       246  1.014999E-08  0.000000E+00 -9.999973E-03 L
       247  1.026193E-08  0.000000E+00 -9.999975E-03 L
       248  1.025605E-08  0.000000E+00 -9.999976E-03 L
       249  1.015077E-08  0.000000E+00 -9.999977E-03 L
       250  9.947733E-09  0.000000E+00 -9.999978E-03 L
       251  9.663089E-09  0.000000E+00 -9.999980E-03 L
       252  9.321097E-09  0.000000E+00 -9.999981E-03 L
       253  8.953116E-09  0.000000E+00 -9.999982E-03 L
       254  8.591203E-09  0.000000E+00 -9.999984E-03 L
       255  8.256392E-09  0.000000E+00 -9.999986E-03 L
       256  7.961064E-09  0.000000E+00 -9.999987E-03 L
       257  7.707552E-09  0.000000E+00 -9.999989E-03 L
       258  7.494555E-09  0.000000E+00 -9.999990E-03 L
       259  7.321154E-09  0.000000E+00 -9.999992E-03 L
       260  6.520528E-09  0.000000E+00 -9.999995E-03 L
       261  6.009370E-09  0.000000E+00 -9.999995E-03 L
       262  5.407473E-09  0.000000E+00 -9.999995E-03 L
       263  4.853468E-09  0.000000E+00 -9.999995E-03 L
       264  4.315700E-09  0.000000E+00 -9.999995E-03 L
       265  3.789801E-09  0.000000E+00 -9.999996E-03 L
       266  3.279197E-09  0.000000E+00 -9.999996E-03 L
       267  2.789051E-09  0.000000E+00 -9.999996E-03 L
       268  2.324199E-09  0.000000E+00 -9.999996E-03 L
       269  1.888571E-09  0.000000E+00 -9.999996E-03 L
       270  1.485025E-09  0.000000E+00 -9.999997E-03 L
       271  1.115620E-09  0.000000E+00 -9.999997E-03 L
       272  7.819651E-10  0.000000E+00 -9.999997E-03 L
       273  7.176069E-09  0.000000E+00 -9.999993E-03 L
       274  6.732104E-09  0.000000E+00 -9.999994E-03 L
       275  7.602683E-10  0.000000E+00 -9.999996E-03 L
       276  7.303042E-10  0.000000E+00 -9.999995E-03 L
       277  6.910276E-10  0.000000E+00 -9.999994E-03 L
       278  6.418500E-10  0.000000E+00 -9.999993E-03 L
       279  5.832239E-10  0.000000E+00 -9.999993E-03 L
       280  5.174950E-10  0.000000E+00 -9.999992E-03 L
       281  4.500115E-10  0.000000E+00 -9.999991E-03 L
       282  3.904226E-10  0.000000E+00 -9.999990E-03 L
       283  3.540749E-10  0.000000E+00 -9.999990E-03 L
       284  3.630590E-10  0.000000E+00 -9.999989E-03 L
       285  4.465619E-10  0.000000E+00 -9.999989E-03 L
       286  6.400320E-10  0.000000E+00 -9.999989E-03 L
       287  9.831972E-10  0.000000E+00 -9.999989E-03 L
       288  6.446273E-09  0.000000E+00 -9.999993E-03 L
       289  1.220874E-09  0.000000E+00 -9.999987E-03 L
       290  1.425571E-09  0.000000E+00 -9.999985E-03 L
       291  1.593949E-09  0.000000E+00 -9.999984E-03 L
       292  1.735685E-09  0.000000E+00 -9.999982E-03 L
       293  1.884797E-09  0.000000E+00 -9.999979E-03 L
       294  2.120768E-09  0.000000E+00 -9.999977E-03 L
       295  2.610230E-09  0.000000E+00 -9.999974E-03 L
       296  3.519716E-09  0.000000E+00 -9.999971E-03 L
       297  4.864065E-09  0.000000E+00 -9.999969E-03 L
       298  6.457901E-09  0.000000E+00 -9.999968E-03 L
       299  7.789801E-09  0.000000E+00 -9.999968E-03 L
       300  8.631902E-09  0.000000E+00 -9.999968E-03 L
       301  9.024642E-09  0.000000E+00 -9.999970E-03 L
       302  9.422382E-09  0.000000E+00 -9.999971E-03 L
       303  9.739141E-09  0.000000E+00 -9.999973E-03 L
       304  9.964016E-09  0.000000E+00 -9.999974E-03 L
       305  9.834958E-09  0.000000E+00 -9.999975E-03 L
       306  9.628384E-09  0.000000E+00 -9.999976E-03 L
       307  9.375521E-09  0.000000E+00 -9.999978E-03 L
       308  9.077762E-09  0.000000E+00 -9.999979E-03 L
       309  8.735117E-09  0.000000E+00 -9.999981E-03 L
       310  8.374632E-09  0.000000E+00 -9.999982E-03 L
       311  8.023386E-09  0.000000E+00 -9.999984E-03 L
       312  7.701732E-09  0.000000E+00 -9.999986E-03 L
       313  7.427004E-09  0.000000E+00 -9.999987E-03 L
       314  7.199676E-09  0.000000E+00 -9.999989E-03 L
       315  7.015917E-09  0.000000E+00 -9.999990E-03 L
       316  6.880184E-09  0.000000E+00 -9.999992E-03 L
       317  6.435209E-09  0.000000E+00 -9.999992E-03 L
       318  5.955578E-09  0.000000E+00 -9.999993E-03 L
       319  5.425074E-09  0.000000E+00 -9.999993E-03 L
       320  4.887156E-09  0.000000E+00 -9.999994E-03 L
       321  4.345912E-09  0.000000E+00 -9.999994E-03 L
       322  3.808089E-09  0.000000E+00 -9.999994E-03 L
       323  3.283541E-09  0.000000E+00 -9.999994E-03 L
       324  2.780752E-09  0.000000E+00 -9.999995E-03 L
       325  2.306284E-09  0.000000E+00 -9.999995E-03 L
       326  1.864650E-09  0.000000E+00 -9.999995E-03 L
       327  1.458739E-09  0.000000E+00 -9.999995E-03 L
       328  1.090258E-09  0.000000E+00 -9.999996E-03 L
       329  6.797842E-09  0.000000E+00 -9.999993E-03 L
       330  8.231538E-10  0.000000E+00 -9.999987E-03 L
       331  1.054791E-09  0.000000E+00 -9.999995E-03 L
       332  1.007632E-09  0.000000E+00 -9.999994E-03 L
       333  9.475278E-10  0.000000E+00 -9.999993E-03 L
       334  8.742996E-10  0.000000E+00 -9.999992E-03 L
       335  7.898466E-10  0.000000E+00 -9.999991E-03 L
       336  6.995274E-10  0.000000E+00 -9.999990E-03 L
       337  6.139954E-10  0.000000E+00 -9.999989E-03 L
       338  5.512136E-10  0.000000E+00 -9.999989E-03 L
       339  5.384403E-10  0.000000E+00 -9.999988E-03 L
       340  6.133351E-10  0.000000E+00 -9.999988E-03 L
       341  1.005374E-09  0.000000E+00 -9.999986E-03 L
       342  1.193722E-09  0.000000E+00 -9.999984E-03 L
       343  1.411384E-09  0.000000E+00 -9.999982E-03 L
       344  1.705760E-09  0.000000E+00 -9.999980E-03 L
       345  2.160795E-09  0.000000E+00 -9.999978E-03 L
       346  2.879850E-09  0.000000E+00 -9.999976E-03 L
       347  3.926164E-09  0.000000E+00 -9.999974E-03 L
       348  5.263272E-09  0.000000E+00 -9.999972E-03 L
       349  6.881283E-09  0.000000E+00 -9.999971E-03 L
       350  8.179739E-09  0.000000E+00 -9.999970E-03 L
       351  9.266482E-09  0.000000E+00 -9.999974E-03 L
       352  8.732415E-09  0.000000E+00 -9.999972E-03 L
       353  8.936107E-09  0.000000E+00 -9.999976E-03 L
       354  8.692140E-09  0.000000E+00 -9.999977E-03 L
       355  8.382471E-09  0.000000E+00 -9.999979E-03 L
       356  8.041972E-09  0.000000E+00 -9.999980E-03 L
       357  7.689163E-09  0.000000E+00 -9.999982E-03 L
       358  7.360526E-09  0.000000E+00 -9.999984E-03 L
       359  7.066905E-09  0.000000E+00 -9.999986E-03 L
       360  6.840396E-09  0.000000E+00 -9.999987E-03 L
       361  6.660163E-09  0.000000E+00 -9.999989E-03 L
       362  6.520361E-09  0.000000E+00 -9.999991E-03 L
       363  5.474146E-09  0.000000E+00 -9.999992E-03 L
       364  4.934790E-09  0.000000E+00 -9.999992E-03 L
       365  4.387798E-09  0.000000E+00 -9.999992E-03 L
       366  3.830754E-09  0.000000E+00 -9.999993E-03 L
       367  3.285497E-09  0.000000E+00 -9.999993E-03 L
       368  2.765381E-09  0.000000E+00 -9.999993E-03 L
       369  2.278502E-09  0.000000E+00 -9.999994E-03 L
       370  1.829592E-09  0.000000E+00 -9.999994E-03 L
       371  1.421293E-09  0.000000E+00 -9.999994E-03 L
       372  1.370482E-09  0.000000E+00 -9.999993E-03 L
       373  1.304253E-09  0.000000E+00 -9.999992E-03 L
       374  1.221352E-09  0.000000E+00 -9.999991E-03 L
       375  1.122549E-09  0.000000E+00 -9.999990E-03 L
       376  1.012217E-09  0.000000E+00 -9.999989E-03 L
       377  9.005648E-10  0.000000E+00 -9.999988E-03 L
       378  8.063524E-10  0.000000E+00 -9.999987E-03 L
       379  7.600509E-10  0.000000E+00 -9.999987E-03 L
       380  8.065527E-10  0.000000E+00 -9.999986E-03 L
       381  7.831060E-09  0.000000E+00 -9.999973E-03 L
       382  8.103022E-09  0.000000E+00 -9.999975E-03 L
       383  7.923429E-09  0.000000E+00 -9.999977E-03 L
       384  4.997530E-09  0.000000E+00 -9.999990E-03 L
       385  4.455434E-09  0.000000E+00 -9.999991E-03 L
       386  1.040627E-09  0.000000E+00 -9.999985E-03 L
       387  1.343364E-09  0.000000E+00 -9.999983E-03 L
       388  1.760534E-09  0.000000E+00 -9.999981E-03 L
       389  2.353264E-09  0.000000E+00 -9.999979E-03 L
       390  3.176621E-09  0.000000E+00 -9.999977E-03 L
       391  4.237625E-09  0.000000E+00 -9.999976E-03 L
       392  5.485926E-09  0.000000E+00 -9.999975E-03 L
       393  6.561576E-09  0.000000E+00 -9.999974E-03 L
       394  6.006779E-09  0.000000E+00 -9.999991E-03 L
       395  7.611744E-09  0.000000E+00 -9.999978E-03 L
       396  7.263985E-09  0.000000E+00 -9.999980E-03 L
       397  6.901946E-09  0.000000E+00 -9.999982E-03 L
       398  6.614531E-09  0.000000E+00 -9.999984E-03 L
       399  6.346737E-09  0.000000E+00 -9.999986E-03 L
       400  6.212902E-09  0.000000E+00 -9.999988E-03 L
       401  6.101704E-09  0.000000E+00 -9.999990E-03 L
       402  3.857916E-09  0.000000E+00 -9.999991E-03 L
       403  3.281221E-09  0.000000E+00 -9.999991E-03 L
       404  2.738902E-09  0.000000E+00 -9.999992E-03 L
       405  2.237308E-09  0.000000E+00 -9.999992E-03 L
       406  1.780461E-09  0.000000E+00 -9.999993E-03 L
       407  1.714395E-09  0.000000E+00 -9.999992E-03 L
       408  1.628624E-09  0.000000E+00 -9.999990E-03 L
       409  1.522197E-09  0.000000E+00 -9.999989E-03 L
       410  1.397678E-09  0.000000E+00 -9.999988E-03 L
       411  1.263155E-09  0.000000E+00 -9.999987E-03 L
       412  1.135492E-09  0.000000E+00 -9.999986E-03 L
       413  1.044886E-09  0.000000E+00 -9.999985E-03 L
       414  6.929829E-09  0.000000E+00 -9.999975E-03 L
       415  1.419020E-09  0.000000E+00 -9.999984E-03 L
       416  1.917480E-09  0.000000E+00 -9.999982E-03 L
       417  2.577428E-09  0.000000E+00 -9.999981E-03 L
       418  3.427540E-09  0.000000E+00 -9.999979E-03 L
       419  4.504032E-09  0.000000E+00 -9.999978E-03 L
       420  5.871939E-09  0.000000E+00 -9.999977E-03 L
       421  4.631088E-09  0.000000E+00 -9.999989E-03 L
       422  5.472481E-09  0.000000E+00 -9.999987E-03 L
       423  4.918054E-09  0.000000E+00 -9.999986E-03 L
       424  4.437429E-09  0.000000E+00 -9.999987E-03 L
       425  6.797823E-09  0.000000E+00 -9.999978E-03 L
       426  6.428875E-09  0.000000E+00 -9.999980E-03 L
       427  5.987217E-09  0.000000E+00 -9.999982E-03 L
       428  5.808617E-09  0.000000E+00 -9.999984E-03 L
       429  5.588871E-09  0.000000E+00 -9.999988E-03 L
       430  5.539775E-09  0.000000E+00 -9.999990E-03 L
       431  5.073939E-09  0.000000E+00 -9.999989E-03 L
       432  3.888656E-09  0.000000E+00 -9.999989E-03 L
       433  7.229882E-09  0.000000E+00 -9.999977E-03 L
       434  3.262476E-09  0.000000E+00 -9.999990E-03 L
       435  2.694790E-09  0.000000E+00 -9.999990E-03 L
       436  2.178196E-09  0.000000E+00 -9.999991E-03 L
       437  2.097331E-09  0.000000E+00 -9.999990E-03 L
       438  1.991937E-09  0.000000E+00 -9.999988E-03 L
       439  1.862957E-09  0.000000E+00 -9.999987E-03 L
       440  1.714798E-09  0.000000E+00 -9.999986E-03 L
       441  1.558833E-09  0.000000E+00 -9.999985E-03 L
       442  5.057953E-09  0.000000E+00 -9.999984E-03 L
       443  2.098427E-09  0.000000E+00 -9.999984E-03 L
       444  2.769388E-09  0.000000E+00 -9.999982E-03 L
       445  3.581366E-09  0.000000E+00 -9.999981E-03 L
       446  4.573335E-09  0.000000E+00 -9.999981E-03 L
       447  5.632028E-09  0.000000E+00 -9.999979E-03 L
       448  5.083429E-09  0.000000E+00 -9.999983E-03 L
       449  5.564189E-09  0.000000E+00 -9.999981E-03 L
       450  3.816220E-09  0.000000E+00 -9.999988E-03 L
       451  3.200700E-09  0.000000E+00 -9.999988E-03 L
       452  2.623048E-09  0.000000E+00 -9.999989E-03 L
       453  2.526913E-09  0.000000E+00 -9.999988E-03 L
       454  2.407480E-09  0.000000E+00 -9.999986E-03 L
       455  2.264004E-09  0.000000E+00 -9.999985E-03 L
       456  5.091275E-09  0.000000E+00 -9.999981E-03 L
       457  2.909968E-09  0.000000E+00 -9.999984E-03 L
       458  3.632459E-09  0.000000E+00 -9.999983E-03 L
       459  4.386113E-09  0.000000E+00 -9.999983E-03 L
       460  4.253496E-09  0.000000E+00 -9.999986E-03 L
       461  3.716187E-09  0.000000E+00 -9.999986E-03 L
       462  3.109865E-09  0.000000E+00 -9.999987E-03 L
       463  4.337590E-09  0.000000E+00 -9.999985E-03 L
       464  3.670356E-09  0.000000E+00 -9.999985E-03 L
       465  3.017853E-09  0.000000E+00 -9.999986E-03 L
       466  8.077442E-09  0.000000E+00 -9.999993E-03 L
       467  8.632869E-09  0.000000E+00 -9.999993E-03 L
       468  8.540681E-09  0.000000E+00 -9.999995E-03 L
       469  7.994200E-09  0.000000E+00 -9.999995E-03 L
       470  3.792213E-11  0.000000E+00 -1.000000E-02 L
       471  3.755971E-11  0.000000E+00 -9.999999E-03 L
       472  3.645037E-11  0.000000E+00 -9.999999E-03 L
       473  3.453431E-11  0.000000E+00 -9.999998E-03 L
       474  3.173346E-11  0.000000E+00 -9.999998E-03 L
       475  2.798819E-11  0.000000E+00 -9.999997E-03 L
       476  2.331556E-11  0.000000E+00 -9.999997E-03 L
       477  1.789542E-11  0.000000E+00 -9.999996E-03 L
       478  1.219025E-11  0.000000E+00 -9.999996E-03 L
       479  7.098396E-12  0.000000E+00 -9.999995E-03 L
       480  4.132418E-12  0.000000E+00 -9.999995E-03 L
       481  5.596936E-12  0.000000E+00 -9.999995E-03 L
       482  1.472208E-11  0.000000E+00 -9.999995E-03 L
       483  3.569246E-11  0.000000E+00 -9.999994E-03 L
       484  7.355034E-11  0.000000E+00 -9.999994E-03 L
       485  1.339020E-10  0.000000E+00 -9.999994E-03 L
       486  2.234801E-10  0.000000E+00 -9.999994E-03 L
       487  3.489450E-10  0.000000E+00 -9.999994E-03 L
       488  5.431999E-10  0.000000E+00 -9.999994E-03 L
       489  8.181276E-10  0.000000E+00 -9.999994E-03 L
       490  2.511780E-09  0.000000E+00 -9.999993E-03 L
       491  3.324274E-09  0.000000E+00 -9.999990E-03 L
       492  1.852591E-09  0.000000E+00 -9.999991E-03 L
       493  4.039203E-09  0.000000E+00 -9.999988E-03 L
       494  2.667450E-09  0.000000E+00 -9.999989E-03 L
       495  4.731376E-09  0.000000E+00 -9.999987E-03 L
       496  3.357218E-09  0.000000E+00 -9.999987E-03 L
       497  5.425658E-09  0.000000E+00 -9.999985E-03 L
       498  3.970138E-09  0.000000E+00 -9.999986E-03 L
       499  6.121256E-09  0.000000E+00 -9.999984E-03 L
       500  4.520039E-09  0.000000E+00 -9.999984E-03 L
       501  6.818291E-09  0.000000E+00 -9.999982E-03 L
       502  5.005308E-09  0.000000E+00 -9.999982E-03 L
       503  7.514461E-09  0.000000E+00 -9.999980E-03 L
       504  5.409049E-09  0.000000E+00 -9.999980E-03 L
       505  8.206229E-09  0.000000E+00 -9.999977E-03 L
       506  5.694399E-09  0.000000E+00 -9.999978E-03 L
       507  8.890952E-09  0.000000E+00 -9.999974E-03 L
       508  5.787228E-09  0.000000E+00 -9.999975E-03 L
       509  9.542108E-09  0.000000E+00 -9.999971E-03 L
       510  5.535221E-09  0.000000E+00 -9.999971E-03 L
       511  1.012071E-08  0.000000E+00 -9.999965E-03 L
       512  4.661610E-09  0.000000E+00 -9.999966E-03 L
       513  9.575653E-09  0.000000E+00 -9.999957E-03 L
       514  2.942775E-09  0.000000E+00 -9.999957E-03 L
       515  5.318530E-09  0.000000E+00 -9.999932E-03 L
       516  5.825697E-09  0.000000E+00 -9.999950E-03 L
       517  3.475705E-09  0.000000E+00 -9.999960E-03 L
       518  9.561062E-09  0.000000E+00 -9.999957E-03 L
       519  3.973805E-09  0.000000E+00 -9.999967E-03 L
       520  9.069664E-09  0.000000E+00 -9.999965E-03 L
       521  5.755848E-09  0.000000E+00 -9.999972E-03 L
       522  9.039826E-09  0.000000E+00 -9.999970E-03 L
       523  7.311205E-09  0.000000E+00 -9.999974E-03 L
       524  9.399819E-09  0.000000E+00 -9.999973E-03 L
       525  8.613880E-09  0.000000E+00 -9.999976E-03 L
       526  9.857350E-09  0.000000E+00 -9.999975E-03 L
       527  9.620362E-09  0.000000E+00 -9.999977E-03 L
       528  1.028095E-08  0.000000E+00 -9.999976E-03 L
       529  1.032752E-08  0.000000E+00 -9.999978E-03 L
       530  1.058875E-08  0.000000E+00 -9.999977E-03 L
       531  1.073242E-08  0.000000E+00 -9.999979E-03 L
       532  1.072994E-08  0.000000E+00 -9.999978E-03 L
       533  1.084229E-08  0.000000E+00 -9.999979E-03 L
       534  1.068375E-08  0.000000E+00 -9.999979E-03 L
       535  1.071880E-08  0.000000E+00 -9.999980E-03 L
       536  1.047406E-08  0.000000E+00 -9.999980E-03 L
       537  1.046906E-08  0.000000E+00 -9.999981E-03 L
       538  1.016753E-08  0.000000E+00 -9.999981E-03 L
       539  1.016927E-08  0.000000E+00 -9.999982E-03 L
       540  9.824663E-09  0.000000E+00 -9.999983E-03 L
       541  9.863968E-09  0.000000E+00 -9.999984E-03 L
       542  9.484529E-09  0.000000E+00 -9.999984E-03 L
       543  9.576636E-09  0.000000E+00 -9.999985E-03 L
       544  9.169584E-09  0.000000E+00 -9.999985E-03 L