
 displacements (vx,vy,vz) for set NALL and time  0.1000000E+01

         1  5.110825E-04  0.000000E+00  0.000000E+00
         2  5.110825E-04  1.000000E+00  5.500000E+02
         3  5.110825E-04  0.000000E+00  0.000000E+00
         4  5.110825E-04  8.747963E-01  5.500000E+02
         5  5.110825E-04  0.000000E+00  0.000000E+00
         6  5.110825E-04  1.367374E+00  6.215949E+02
         7  5.110825E-04  0.000000E+00  0.000000E+00
         8  5.110825E-04  1.295039E+00  6.215949E+02
         9  5.110825E-04  0.000000E+00  0.000000E+00
        10  5.110825E-04  7.000000E-01  6.215949E+02
        11  5.110825E-04  0.000000E+00  0.000000E+00

 temperatures for set NALL and time  0.1000000E+01

         1  0.000000E+00
         2  5.500000E+02
         3  0.000000E+00
         4  5.500000E+02
         5  0.000000E+00
         6  6.215949E+02
         7  0.000000E+00
         8  6.215949E+02
         9  0.000000E+00
        10  6.215949E+02
        11  0.000000E+00
