    1C
    1UModel: linear net 3 elements Dtype                                
    1UUSER                                                              
    1UDATE              15.december.2018                                
    1UTIME              15:53:59                                        
    1UHOST                                                              
    1UPGM               CalculiX                                        
    1UVERSION           Version 2.15                             
    1UCOMPILETIME       Sa 15. Dez 14:32:01 CET 2018                    
    1UDIR                                                               
    1UDBN                                                               
    1UMAT    1GAS                                                       
    2C                            10                                     1
 -1         1 1.00000E+00 0.00000E+00 0.00000E+00
 -1         2 2.00000E+00 0.00000E+00 0.00000E+00
 -1         3 3.00000E+00 0.00000E+00 0.00000E+00
 -1         4 4.00000E+00 0.00000E+00 0.00000E+00
 -1         5 5.00000E+00 0.00000E+00 0.00000E+00
 -1         6 1.00000E+00 1.00000E+00 0.00000E+00
 -1         7 2.00000E+00 1.00000E+00 0.00000E+00
 -1         8 3.00000E+00 1.00000E+00 0.00000E+00
 -1         9 4.00000E+00 1.00000E+00 0.00000E+00
 -1        10 5.00000E+00 1.00000E+00 0.00000E+00
 -3
    3C                             6                                     1
 -1         1   11    0    1
 -2         1         2
 -1         2   12    0    1
 -2         2         4         3
 -1         3   11    0    1
 -2         4         5
 -1         4   12    0    1
 -2         7         9         8
 -1         5   11    0    1
 -2         6         7
 -1         6   11    0    1
 -2         9        10
 -3
    1PSTEP                         1           1           1          
  100CL  101 1.000000000          10                     0    1           1
 -4  TOTEMP      1    1
 -5  TT          1    1    0    0
 -1         1 8.19000E+02
 -1         2 8.19000E+02
 -1         3 8.19000E+02
 -1         4 8.19000E+02
 -1         5 8.19000E+02
 -1         6 8.19000E+02
 -1         7 8.19000E+02
 -1         8 8.19000E+02
 -1         9 8.19000E+02
 -1        10 8.19000E+02
 -3
    1PSTEP                         2           1           1          
  100CL  101 1.000000000          10                     0    1           1
 -4  MAFLOW      1    1
 -5  MF          1    1    0    0
 -1         1 5.02030E-01
 -1         2 5.02030E-01
 -1         3 5.02030E-01
 -1         4 5.02030E-01
 -1         5 5.02030E-01
 -1         6 5.02030E-01
 -1         7 5.02030E-01
 -1         8 5.02030E-01
 -1         9 5.02030E-01
 -1        10 5.02030E-01
 -3
    1PSTEP                         3           1           1          
  100CL  101 1.000000000          10                     0    1           1
 -4  TOPRES      1    1
 -5  PT          1    1    0    0
 -1         1 5.44300E+05
 -1         2 5.44300E+05
 -1         3 5.42150E+05
 -1         4 5.40000E+05
 -1         5 5.40000E+05
 -1         6 5.40000E+05
 -1         7 5.40000E+05
 -1         8 5.37780E+05
 -1         9 5.35560E+05
 -1        10 5.35560E+05
 -3
    1PSTEP                         4           1           1          
  100CL  101 1.000000000          10                     0    1           1
 -4  STTEMP      1    1
 -5  TS          1    1    0    0
 -1         1 7.46337E+02
 -1         2 7.46337E+02
 -1         3 7.45013E+02
 -1         4 7.43689E+02
 -1         5 7.43689E+02
 -1         6 7.43689E+02
 -1         7 7.43689E+02
 -1         8 7.42181E+02
 -1         9 7.40673E+02
 -1        10 7.40673E+02
 -3
 9999
