    1C
    1UModel: beam     Date: 10-Mar-1998                                 
    1UUSER                                                              
    1UDATE              15.december.2018                                
    1UTIME              15:53:59                                        
    1UHOST                                                              
    1UPGM               CalculiX                                        
    1UVERSION           Version 2.15                             
    1UCOMPILETIME       Sa 15. Dez 14:32:01 CET 2018                    
    1UDIR                                                               
    1UDBN                                                               
    1UMAT    1EL                                                        
    2C                           261                                     1
 -1         1 3.39783E-02 3.39783E-02 3.39783E-02
 -1         2 9.66054E-01 3.39455E-02 3.39455E-02
 -1         3 1.00000E+00 1.00000E+00 0.00000E+00
 -1         4 0.00000E+00 1.00000E+00 0.00000E+00
 -1         5 3.39393E-02 3.39393E-02 7.96606E+00
 -1         6 9.65988E-01 3.40119E-02 7.96599E+00
 -1         7 1.00000E+00 1.00000E+00 8.00000E+00
 -1         8 0.00000E+00 1.00000E+00 8.00000E+00
 -1         9 2.50000E-01 3.70029E-02 3.70029E-02
 -1        10 5.00000E-01 3.71419E-02 3.71419E-02
 -1        11 7.50000E-01 3.70064E-02 3.70064E-02
 -1        12 9.68778E-01 2.50000E-01 3.12217E-02
 -1        13 1.00000E+00 4.57816E-01 0.00000E+00
 -1        14 1.00000E+00 7.18696E-01 0.00000E+00
 -1        15 7.46904E-01 1.00000E+00 0.00000E+00
 -1        16 4.99999E-01 1.00000E+00 0.00000E+00
 -1        17 2.53160E-01 1.00000E+00 0.00000E+00
 -1        18 0.00000E+00 7.18639E-01 0.00000E+00
 -1        19 0.00000E+00 4.57824E-01 0.00000E+00
 -1        20 3.12896E-02 2.50000E-01 3.12896E-02
 -1        21 2.50000E-01 3.70199E-02 7.96298E+00
 -1        22 5.00000E-01 3.71629E-02 7.96284E+00
 -1        23 7.50000E-01 3.70313E-02 7.96297E+00
 -1        24 9.68734E-01 2.50000E-01 7.96873E+00
 -1        25 1.00000E+00 4.57753E-01 8.00000E+00
 -1        26 1.00000E+00 7.18619E-01 8.00000E+00
 -1        27 7.46865E-01 1.00000E+00 8.00000E+00
 -1        28 4.99977E-01 1.00000E+00 8.00000E+00
 -1        29 2.53235E-01 1.00000E+00 8.00000E+00
 -1        30 0.00000E+00 7.18585E-01 8.00000E+00
 -1        31 0.00000E+00 4.57896E-01 8.00000E+00
 -1        32 3.13087E-02 2.50000E-01 7.96869E+00
 -1        33 9.60438E-01 3.95621E-02 5.00000E-01
 -1        34 9.65146E-01 3.48537E-02 1.00000E+00
 -1        35 9.79903E-01 2.00968E-02 1.50000E+00
 -1        36 9.96368E-01 3.63156E-03 2.00000E+00
 -1        37 1.01289E+00-1.28869E-02 2.50000E+00
 -1        38 1.02941E+00-2.94058E-02 3.00000E+00
 -1        39 1.04305E+00-4.30540E-02 3.50000E+00
 -1        40 1.05021E+00-5.02052E-02 4.00000E+00
 -1        41 1.04304E+00-4.30359E-02 4.50000E+00
 -1        42 1.02937E+00-2.93681E-02 5.00000E+00
 -1        43 1.01283E+00-1.28329E-02 5.50000E+00
 -1        44 9.96300E-01 3.70017E-03 6.00000E+00
 -1        45 9.79824E-01 2.01764E-02 6.50000E+00
 -1        46 9.65057E-01 3.49432E-02 7.00000E+00
 -1        47 9.60344E-01 3.96563E-02 7.50000E+00
 -1        48 3.94747E-02 3.94747E-02 7.50000E+00
 -1        49 3.46738E-02 3.46738E-02 7.00000E+00
 -1        50 1.97961E-02 1.97961E-02 6.50000E+00
 -1        51 3.20218E-03 3.20218E-03 6.00000E+00
 -1        52-1.34492E-02-1.34492E-02 5.50000E+00
 -1        53-3.00984E-02-3.00984E-02 5.00000E+00
 -1        54-4.38299E-02-4.38299E-02 4.50000E+00
 -1        55-5.10171E-02-5.10171E-02 4.00000E+00
 -1        56-4.37966E-02-4.37966E-02 3.50000E+00
 -1        57-3.00368E-02-3.00368E-02 3.00000E+00
 -1        58-1.33716E-02-1.33716E-02 2.50000E+00
 -1        59 3.28943E-03 3.28943E-03 2.00000E+00
 -1        60 1.98829E-02 1.98829E-02 1.50000E+00
 -1        61 3.47551E-02 3.47551E-02 1.00000E+00
 -1        62 3.95455E-02 3.95455E-02 5.00000E-01
 -1        63 9.64649E-01 9.64649E-01 5.00000E-01
 -1        64 9.68341E-01 9.68341E-01 1.00000E+00
 -1        65 9.81613E-01 9.81613E-01 1.50000E+00
 -1        66 9.96593E-01 9.96593E-01 2.00000E+00
 -1        67 1.01205E+00 1.01205E+00 2.50000E+00
 -1        68 1.02742E+00 1.02742E+00 3.00000E+00
 -1        69 1.04021E+00 1.04021E+00 3.50000E+00
 -1        70 1.04672E+00 1.04672E+00 4.00000E+00
 -1        71 1.04017E+00 1.04017E+00 4.50000E+00
 -1        72 1.02735E+00 1.02735E+00 5.00000E+00
 -1        73 1.01195E+00 1.01195E+00 5.50000E+00
 -1        74 9.96484E-01 9.96484E-01 6.00000E+00
 -1        75 9.81500E-01 9.81500E-01 6.50000E+00
 -1        76 9.68231E-01 9.68231E-01 7.00000E+00
 -1        77 9.64546E-01 9.64546E-01 7.50000E+00
 -1        78 3.54795E-02 9.64521E-01 5.00000E-01
 -1        79 3.18654E-02 9.68135E-01 1.00000E+00
 -1        80 1.87062E-02 9.81294E-01 1.50000E+00
 -1        81 3.84857E-03 9.96151E-01 2.00000E+00
 -1        82-1.14708E-02 1.01147E+00 2.50000E+00
 -1        83-2.67110E-02 1.02671E+00 3.00000E+00
 -1        84-3.93963E-02 1.03940E+00 3.50000E+00
 -1        85-4.58433E-02 1.04584E+00 4.00000E+00
 -1        86-3.93131E-02 1.03931E+00 4.50000E+00
 -1        87-2.65517E-02 1.02655E+00 5.00000E+00
 -1        88-1.12595E-02 1.01126E+00 5.50000E+00
 -1        89 4.09855E-03 9.95901E-01 6.00000E+00
 -1        90 1.89765E-02 9.81023E-01 6.50000E+00
 -1        91 3.21498E-02 9.67850E-01 7.00000E+00
 -1        92 3.57596E-02 9.64240E-01 7.50000E+00
 -1        93 5.00000E-01 2.50000E-01 2.20265E-02
 -1        94 2.55308E-01 4.96710E-01 0.00000E+00
 -1        95 5.00031E-01 4.82575E-01 0.00000E+00
 -1        96 7.44718E-01 4.96686E-01 0.00000E+00
 -1        97 5.00022E-01 7.44766E-01 0.00000E+00
 -1        98 5.00000E-01 2.50000E-01 7.97797E+00
 -1        99 2.55296E-01 4.96656E-01 8.00000E+00
 -1       100 5.00063E-01 4.82513E-01 8.00000E+00
 -1       101 7.44734E-01 4.96642E-01 8.00000E+00
 -1       102 5.00042E-01 7.44743E-01 8.00000E+00
 -1       103 5.00000E-01 4.75985E-02 5.00000E-01
 -1       104 2.50000E-01 3.80675E-02 1.00000E+00
 -1       105 5.00000E-01 3.81639E-02 1.00000E+00
 -1       106 7.50000E-01 3.80949E-02 1.00000E+00
 -1       107 5.00000E-01 1.45365E-02 1.50000E+00
 -1       108 2.50000E-01-1.15249E-02 2.00000E+00
 -1       109 5.00000E-01-1.14342E-02 2.00000E+00
 -1       110 7.50000E-01-1.14591E-02 2.00000E+00
 -1       111 5.00000E-01-3.83868E-02 2.50000E+00
 -1       112 2.50000E-01-6.58694E-02 3.00000E+00
 -1       113 5.00000E-01-6.61354E-02 3.00000E+00
 -1       114 7.50000E-01-6.57497E-02 3.00000E+00
 -1       115 5.00000E-01-8.86168E-02 3.50000E+00
 -1       116 2.50000E-01-9.92267E-02 4.00000E+00
 -1       117 5.00000E-01-1.00000E-01 4.00000E+00
 -1       118 7.50000E-01-9.90713E-02 4.00000E+00
 -1       119 5.00000E-01-8.86358E-02 4.50000E+00
 -1       120 2.50000E-01-6.59078E-02 5.00000E+00
 -1       121 5.00000E-01-6.61660E-02 5.00000E+00
 -1       122 7.50000E-01-6.57720E-02 5.00000E+00
 -1       123 5.00000E-01-3.84184E-02 5.50000E+00
 -1       124 2.50000E-01-1.15638E-02 6.00000E+00
 -1       125 5.00000E-01-1.14611E-02 6.00000E+00
 -1       126 7.50000E-01-1.14743E-02 6.00000E+00
 -1       127 5.00000E-01 1.45222E-02 6.50000E+00
 -1       128 2.50000E-01 3.80599E-02 7.00000E+00
 -1       129 5.00000E-01 3.81673E-02 7.00000E+00
 -1       130 7.50000E-01 3.81090E-02 7.00000E+00
 -1       131 5.00000E-01 4.76191E-02 7.50000E+00
 -1       132 9.54261E-01 5.00000E-01 5.00000E-01
 -1       133 9.56728E-01 2.50000E-01 1.00000E+00
 -1       134 9.56572E-01 5.00000E-01 1.00000E+00
 -1       135 9.56696E-01 7.50000E-01 1.00000E+00
 -1       136 9.67984E-01 5.00000E-01 1.50000E+00
 -1       137 9.80305E-01 2.50000E-01 2.00000E+00
 -1       138 9.80293E-01 5.00000E-01 2.00000E+00
 -1       139 9.80483E-01 7.50000E-01 2.00000E+00
 -1       140 9.92259E-01 5.00000E-01 2.50000E+00
 -1       141 1.00406E+00 2.50000E-01 3.00000E+00
 -1       142 1.00434E+00 5.00000E-01 3.00000E+00
 -1       143 1.00494E+00 7.50000E-01 3.00000E+00
 -1       144 1.01530E+00 5.00000E-01 3.50000E+00
 -1       145 1.02178E+00 2.50000E-01 4.00000E+00
 -1       146 1.02167E+00 5.00000E-01 4.00000E+00
 -1       147 1.02189E+00 7.50000E-01 4.00000E+00
 -1       148 1.01528E+00 5.00000E-01 4.50000E+00
 -1       149 1.00401E+00 2.50000E-01 5.00000E+00
 -1       150 1.00429E+00 5.00000E-01 5.00000E+00
 -1       151 1.00490E+00 7.50000E-01 5.00000E+00
 -1       152 9.92201E-01 5.00000E-01 5.50000E+00
 -1       153 9.80228E-01 2.50000E-01 6.00000E+00
 -1       154 9.80224E-01 5.00000E-01 6.00000E+00
 -1       155 9.80422E-01 7.50000E-01 6.00000E+00
 -1       156 9.67909E-01 5.00000E-01 6.50000E+00
 -1       157 9.56641E-01 2.50000E-01 7.00000E+00
 -1       158 9.56493E-01 5.00000E-01 7.00000E+00
 -1       159 9.56626E-01 7.50000E-01 7.00000E+00
 -1       160 9.54182E-01 5.00000E-01 7.50000E+00
 -1       161 5.00000E-01 9.60798E-01 5.00000E-01
 -1       162 7.50000E-01 9.67885E-01 1.00000E+00
 -1       163 5.00000E-01 9.67788E-01 1.00000E+00
 -1       164 2.50000E-01 9.67878E-01 1.00000E+00
 -1       165 5.00000E-01 9.88177E-01 1.50000E+00
 -1       166 7.50000E-01 1.01094E+00 2.00000E+00
 -1       167 5.00000E-01 1.01086E+00 2.00000E+00
 -1       168 2.50000E-01 1.01087E+00 2.00000E+00
 -1       169 5.00000E-01 1.03519E+00 2.50000E+00
 -1       170 7.50000E-01 1.05947E+00 3.00000E+00
 -1       171 5.00000E-01 1.05961E+00 3.00000E+00
 -1       172 2.50000E-01 1.05935E+00 3.00000E+00
 -1       173 5.00000E-01 1.07977E+00 3.50000E+00
 -1       174 7.50000E-01 1.08969E+00 4.00000E+00
 -1       175 5.00000E-01 1.09018E+00 4.00000E+00
 -1       176 2.50000E-01 1.08953E+00 4.00000E+00
 -1       177 5.00000E-01 1.07966E+00 4.50000E+00
 -1       178 7.50000E-01 1.05927E+00 5.00000E+00
 -1       179 5.00000E-01 1.05940E+00 5.00000E+00
 -1       180 2.50000E-01 1.05913E+00 5.00000E+00
 -1       181 5.00000E-01 1.03491E+00 5.50000E+00
 -1       182 7.50000E-01 1.01062E+00 6.00000E+00
 -1       183 5.00000E-01 1.01053E+00 6.00000E+00
 -1       184 2.50000E-01 1.01052E+00 6.00000E+00
 -1       185 5.00000E-01 9.87819E-01 6.50000E+00
 -1       186 7.50000E-01 9.67540E-01 7.00000E+00
 -1       187 5.00000E-01 9.67416E-01 7.00000E+00
 -1       188 2.50000E-01 9.67480E-01 7.00000E+00
 -1       189 5.00000E-01 9.60439E-01 7.50000E+00
 -1       190 4.58816E-02 5.00000E-01 5.00000E-01
 -1       191 4.34557E-02 7.50000E-01 1.00000E+00
 -1       192 4.35558E-02 5.00000E-01 1.00000E+00
 -1       193 4.33702E-02 2.50000E-01 1.00000E+00
 -1       194 3.21267E-02 5.00000E-01 1.50000E+00
 -1       195 1.96826E-02 7.50000E-01 2.00000E+00
 -1       196 1.98062E-02 5.00000E-01 2.00000E+00
 -1       197 1.97280E-02 2.50000E-01 2.00000E+00
 -1       198 7.83202E-03 5.00000E-01 2.50000E+00
 -1       199-4.73621E-03 7.50000E-01 3.00000E+00
 -1       200-4.25298E-03 5.00000E-01 3.00000E+00
 -1       201-4.09383E-03 2.50000E-01 3.00000E+00
 -1       202-1.52320E-02 5.00000E-01 3.50000E+00
 -1       203-2.16685E-02 7.50000E-01 4.00000E+00
 -1       204-2.16033E-02 5.00000E-01 4.00000E+00
 -1       205-2.18724E-02 2.50000E-01 4.00000E+00
 -1       206-1.52185E-02 5.00000E-01 4.50000E+00
 -1       207-4.69591E-03 7.50000E-01 5.00000E+00
 -1       208-4.22631E-03 5.00000E-01 5.00000E+00
 -1       209-4.08045E-03 2.50000E-01 5.00000E+00
 -1       210 7.86901E-03 5.00000E-01 5.50000E+00
 -1       211 1.97469E-02 7.50000E-01 6.00000E+00
 -1       212 1.98517E-02 5.00000E-01 6.00000E+00
 -1       213 1.97550E-02 2.50000E-01 6.00000E+00
 -1       214 3.21768E-02 5.00000E-01 6.50000E+00
 -1       215 4.35292E-02 7.50000E-01 7.00000E+00
 -1       216 4.36072E-02 5.00000E-01 7.00000E+00
 -1       217 4.34028E-02 2.50000E-01 7.00000E+00
 -1       218 4.59303E-02 5.00000E-01 7.50000E+00
 -1       219 5.00059E-01 5.06795E-01 4.98079E-01
 -1       220 5.00030E-01 2.71544E-01 1.01446E+00
 -1       221 2.75085E-01 4.94224E-01 1.01319E+00
 -1       222 5.00046E-01 4.95654E-01 1.01656E+00
 -1       223 7.25027E-01 4.94272E-01 1.01318E+00
 -1       224 5.00068E-01 7.29750E-01 1.01201E+00
 -1       225 5.00036E-01 5.03711E-01 1.52025E+00
 -1       226 4.99974E-01 2.41157E-01 2.01927E+00
 -1       227 2.61599E-01 4.99680E-01 2.01858E+00
 -1       228 5.00036E-01 4.97134E-01 2.01933E+00
 -1       229 7.38494E-01 4.99802E-01 2.01858E+00
 -1       230 5.00098E-01 7.55001E-01 2.01895E+00
 -1       231 5.00031E-01 4.98802E-01 2.52018E+00
 -1       232 4.99921E-01 2.10890E-01 3.01728E+00
 -1       233 2.48146E-01 4.97453E-01 3.01653E+00
 -1       234 5.00028E-01 4.97813E-01 3.01663E+00
 -1       235 7.51928E-01 4.97672E-01 3.01653E+00
 -1       236 5.00140E-01 7.83626E-01 3.01701E+00
 -1       237 5.00024E-01 4.97125E-01 3.51273E+00
 -1       238 4.99883E-01 1.90387E-01 3.99999E+00
 -1       239 2.38024E-01 4.96560E-01 3.99998E+00
 -1       240 5.00022E-01 4.96593E-01 3.99998E+00
 -1       241 7.62035E-01 4.96843E-01 3.99998E+00
 -1       242 5.00165E-01 8.00878E-01 3.99998E+00
 -1       243 5.00021E-01 4.97081E-01 4.48724E+00
 -1       244 4.99900E-01 2.10835E-01 4.98269E+00
 -1       245 2.48159E-01 4.97349E-01 4.98344E+00
 -1       246 5.00023E-01 4.97735E-01 4.98334E+00
 -1       247 7.51902E-01 4.97599E-01 4.98344E+00
 -1       248 5.00151E-01 7.83467E-01 4.98296E+00
 -1       249 5.00023E-01 4.98696E-01 5.47979E+00
 -1       250 4.99944E-01 2.41080E-01 5.98072E+00
 -1       251 2.61619E-01 4.99522E-01 5.98141E+00
 -1       252 5.00030E-01 4.97011E-01 5.98065E+00
 -1       253 7.38455E-01 4.99693E-01 5.98141E+00
 -1       254 5.00115E-01 7.54749E-01 5.98103E+00
 -1       255 5.00025E-01 5.03589E-01 6.47973E+00
 -1       256 4.99997E-01 2.71470E-01 6.98553E+00
 -1       257 2.75117E-01 4.94046E-01 6.98680E+00
 -1       258 5.00047E-01 4.95506E-01 6.98342E+00
 -1       259 7.24988E-01 4.94147E-01 6.98681E+00
 -1       260 5.00101E-01 7.29470E-01 6.98798E+00
 -1       261 5.00057E-01 5.06683E-01 7.50196E+00
 -3
    3C                            32                                     1
 -1         1    4    0    1
 -2         1        10        95        19        61       105       222       192         9        93
 -2        94        20        62       103       219       190       104       220       221       193
 -1         2    4    0    1
 -2        10         2        13        95       105        34       134       222        11        12
 -2        96        93       103        33       132       219       106       133       223       220
 -1         3    4    0    1
 -2        19        95        16         4       192       222       163        79        94        97
 -2        17        18       190       219       161        78       221       224       164       191
 -1         4    4    0    1
 -2        95        13         3        16       222       134        64       163        96        14
 -2        15        97       219       132        63       161       223       135       162       224
 -1         5    4    0    1
 -2        61       105       222       192        59       109       228       196       104       220
 -2       221       193        60       107       225       194       108       226       227       197
 -1         6    4    0    1
 -2       105        34       134       222       109        36       138       228       106       133
 -2       223       220       107        35       136       225       110       137       229       226
 -1         7    4    0    1
 -2       192       222       163        79       196       228       167        81       221       224
 -2       164       191       194       225       165        80       227       230       168       195
 -1         8    4    0    1
 -2       222       134        64       163       228       138        66       167       223       135
 -2       162       224       225       136        65       165       229       139       166       230
 -1         9    4    0    1
 -2        59       109       228       196        57       113       234       200       108       226
 -2       227       197        58       111       231       198       112       232       233       201
 -1        10    4    0    1
 -2       109        36       138       228       113        38       142       234       110       137
 -2       229       226       111        37       140       231       114       141       235       232
 -1        11    4    0    1
 -2       196       228       167        81       200       234       171        83       227       230
 -2       168       195       198       231       169        82       233       236       172       199
 -1        12    4    0    1
 -2       228       138        66       167       234       142        68       171       229       139
 -2       166       230       231       140        67       169       235       143       170       236
 -1        13    4    0    1
 -2        57       113       234       200        55       117       240       204       112       232
 -2       233       201        56       115       237       202       116       238       239       205
 -1        14    4    0    1
 -2       113        38       142       234       117        40       146       240       114       141
 -2       235       232       115        39       144       237       118       145       241       238
 -1        15    4    0    1
 -2       200       234       171        83       204       240       175        85       233       236
 -2       172       199       202       237       173        84       239       242       176       203
 -1        16    4    0    1
 -2       234       142        68       171       240       146        70       175       235       143
 -2       170       236       237       144        69       173       241       147       174       242
 -1        17    4    0    1
 -2        55       117       240       204        53       121       246       208       116       238
 -2       239       205        54       119       243       206       120       244       245       209
 -1        18    4    0    1
 -2       117        40       146       240       121        42       150       246       118       145
 -2       241       238       119        41       148       243       122       149       247       244
 -1        19    4    0    1
 -2       204       240       175        85       208       246       179        87       239       242
 -2       176       203       206       243       177        86       245       248       180       207
 -1        20    4    0    1
 -2       240       146        70       175       246       150        72       179       241       147
 -2       174       242       243       148        71       177       247       151       178       248
 -1        21    4    0    1
 -2        53       121       246       208        51       125       252       212       120       244
 -2       245       209        52       123       249       210       124       250       251       213
 -1        22    4    0    1
 -2       121        42       150       246       125        44       154       252       122       149
 -2       247       244       123        43       152       249       126       153       253       250
 -1        23    4    0    1
 -2       208       246       179        87       212       252       183        89       245       248
 -2       180       207       210       249       181        88       251       254       184       211
 -1        24    4    0    1
 -2       246       150        72       179       252       154        74       183       247       151
 -2       178       248       249       152        73       181       253       155       182       254
 -1        25    4    0    1
 -2        51       125       252       212        49       129       258       216       124       250
 -2       251       213        50       127       255       214       128       256       257       217
 -1        26    4    0    1
 -2       125        44       154       252       129        46       158       258       126       153
 -2       253       250       127        45       156       255       130       157       259       256
 -1        27    4    0    1
 -2       212       252       183        89       216       258       187        91       251       254
 -2       184       211       214       255       185        90       257       260       188       215
 -1        28    4    0    1
 -2       252       154        74       183       258       158        76       187       253       155
 -2       182       254       255       156        75       185       259       159       186       260
 -1        29    4    0    1
 -2        49       129       258       216         5        22       100        31       128       256
 -2       257       217        48       131       261       218        21        98        99        32
 -1        30    4    0    1
 -2       129        46       158       258        22         6        25       100       130       157
 -2       259       256       131        47       160       261        23        24       101        98
 -1        31    4    0    1
 -2       216       258       187        91        31       100        28         8       257       260
 -2       188       215       218       261       189        92        99       102        29        30
 -1        32    4    0    1
 -2       258       158        76       187       100        25         7        28       259       159
 -2       186       260       261       160        77       189       101        26        27       102
 -3
    1PSTEP                         1           1           1          
  100CL  101 1.000000000         261                     0    1           1
 -4  DISP        4    1
 -5  D1          1    2    1    0
 -5  D2          1    2    2    0
 -5  D3          1    2    3    0
 -5  ALL         1    2    0    0    1ALL
 -1         1-8.71994E-05 4.44338E-04 1.92687E-03
 -1         2-1.14626E-04 4.44479E-04 1.92786E-03
 -1         3 0.00000E+00 0.00000E+00 0.00000E+00
 -1         4-2.02556E-04 0.00000E+00 0.00000E+00
 -1         5-8.74898E-05 4.44495E-04 2.11251E-04
 -1         6-1.14944E-04 4.44708E-04 2.10136E-04
 -1         7 0.00000E+00 0.00000E+00 2.13823E-03
 -1         8-2.02447E-04 0.00000E+00 2.13957E-03
 -1         9-9.61279E-05 4.83613E-04 1.92227E-03
 -1        10-1.00918E-04 4.83370E-04 1.92258E-03
 -1        11-1.05702E-04 4.83730E-04 1.92278E-03
 -1        12-9.44606E-05 4.73266E-04 1.52350E-03
 -1        13-9.53894E-05 4.35653E-04 1.15311E-03
 -1        14-1.08161E-04 2.45035E-04 6.60824E-04
 -1        15-5.23332E-05 3.22267E-04 7.77958E-05
 -1        16-1.01149E-04 4.71003E-04 1.67785E-04
 -1        17-1.50079E-04 3.22320E-04 7.76100E-05
 -1        18-9.40938E-05 2.44925E-04 6.60251E-04
 -1        19-1.06566E-04 4.35467E-04 1.15207E-03
 -1        20-1.07459E-04 4.73210E-04 1.52254E-03
 -1        21-9.64300E-05 4.83855E-04 2.15853E-04
 -1        22-1.01232E-04 4.83581E-04 2.15472E-04
 -1        23-1.06023E-04 4.83916E-04 2.15205E-04
 -1        24-9.47320E-05 4.73458E-04 6.14508E-04
 -1        25-9.56096E-05 4.35739E-04 9.84908E-04
 -1        26-1.08286E-04 2.45066E-04 1.47726E-03
 -1        27-5.24194E-05 3.22403E-04 2.06071E-03
 -1        28-1.01267E-04 4.71187E-04 1.97089E-03
 -1        29-1.50081E-04 3.22375E-04 2.06135E-03
 -1        30-9.41749E-05 2.44999E-04 1.47854E-03
 -1        31-1.06827E-04 4.35635E-04 9.86463E-04
 -1        32-1.07746E-04 4.73452E-04 6.15741E-04
 -1        33-9.54124E-05 1.35775E-03 1.90466E-03
 -1        34-7.50004E-05 2.28107E-03 1.85109E-03
 -1        35-6.53345E-05 3.12559E-03 1.76138E-03
 -1        36-6.31619E-05 3.80098E-03 1.66193E-03
 -1        37-5.98102E-05 4.38380E-03 1.52982E-03
 -1        38-5.53652E-05 4.75743E-03 1.39043E-03
 -1        39-5.06997E-05 5.07702E-03 1.23379E-03
 -1        40-5.82028E-05 5.09704E-03 1.06933E-03
 -1        41-5.08768E-05 5.07737E-03 9.04845E-04
 -1        42-5.57051E-05 4.75808E-03 7.48148E-04
 -1        43-6.02793E-05 4.38468E-03 6.08682E-04
 -1        44-6.37178E-05 3.80195E-03 4.76461E-04
 -1        45-6.59211E-05 3.12653E-03 3.76912E-04
 -1        46-7.55620E-05 2.28182E-03 2.87080E-04
 -1        47-9.58609E-05 1.35818E-03 2.33419E-04
 -1        48-1.07829E-04 1.35810E-03 2.34307E-04
 -1        49-1.29434E-04 2.28179E-03 2.87816E-04
 -1        50-1.40316E-04 3.12648E-03 3.77505E-04
 -1        51-1.43629E-04 3.80196E-03 4.76886E-04
 -1        52-1.47998E-04 4.38466E-03 6.08964E-04
 -1        53-1.53271E-04 4.75815E-03 7.48242E-04
 -1        54-1.58399E-04 5.07734E-03 9.04794E-04
 -1        55-1.51050E-04 5.09702E-03 1.06913E-03
 -1        56-1.58207E-04 5.07697E-03 1.23345E-03
 -1        57-1.52902E-04 4.75746E-03 1.38996E-03
 -1        58-1.47487E-04 4.38373E-03 1.52920E-03
 -1        59-1.43027E-04 3.80090E-03 1.66122E-03
 -1        60-1.39675E-04 3.12545E-03 1.76056E-03
 -1        61-1.28832E-04 2.28088E-03 1.85023E-03
 -1        62-1.07357E-04 1.35755E-03 1.90372E-03
 -1        63-7.30842E-05 1.39009E-03 1.95204E-04
 -1        64-1.66398E-04 2.23612E-03 2.78162E-04
 -1        65-1.36553E-04 3.14143E-03 3.61196E-04
 -1        66-1.47686E-04 3.78351E-03 4.63124E-04
 -1        67-1.46312E-04 4.38252E-03 5.93259E-04
 -1        68-1.58283E-04 4.78063E-03 7.39307E-04
 -1        69-1.57836E-04 5.05640E-03 8.98333E-04
 -1        70-1.62864E-04 5.13337E-03 1.06893E-03
 -1        71-1.58023E-04 5.05675E-03 1.23954E-03
 -1        72-1.58637E-04 4.78128E-03 1.39861E-03
 -1        73-1.46793E-04 4.38341E-03 1.54473E-03
 -1        74-1.48243E-04 3.78446E-03 1.67495E-03
 -1        75-1.37139E-04 3.14241E-03 1.77698E-03
 -1        76-1.66960E-04 2.23686E-03 1.86011E-03
 -1        77-7.34362E-05 1.39055E-03 1.94303E-03
 -1        78-1.29997E-04 1.38984E-03 1.94697E-04
 -1        79-3.78386E-05 2.23601E-03 2.77433E-04
 -1        80-6.87512E-05 3.14130E-03 3.60522E-04
 -1        81-5.87716E-05 3.78335E-03 4.62573E-04
 -1        82-6.12119E-05 4.38238E-03 5.92748E-04
 -1        83-5.01692E-05 4.78044E-03 7.38898E-04
 -1        84-5.12956E-05 5.05623E-03 8.98010E-04
 -1        85-4.66125E-05 5.13319E-03 1.06874E-03
 -1        86-5.14586E-05 5.05659E-03 1.23948E-03
 -1        87-5.04694E-05 4.78108E-03 1.39867E-03
 -1        88-6.16448E-05 4.38329E-03 1.54493E-03
 -1        89-5.92428E-05 3.78430E-03 1.67525E-03
 -1        90-6.92785E-05 3.14232E-03 1.77742E-03
 -1        91-3.82238E-05 2.23663E-03 1.86065E-03
 -1        92-1.30420E-04 1.39052E-03 1.94368E-03
 -1        93-1.00959E-04 4.51597E-04 1.52619E-03
 -1        94-9.66254E-05 4.00000E-04 1.07419E-03
 -1        95-1.01008E-04 4.09829E-04 1.09372E-03
 -1        96-1.05377E-04 4.00072E-04 1.07470E-03
 -1        97-1.01094E-04 4.34106E-04 6.09822E-04
 -1        98-1.01229E-04 4.51772E-04 6.11976E-04
 -1        99-9.68584E-05 4.00148E-04 1.06412E-03
 -1       100-1.01220E-04 4.09972E-04 1.04449E-03
 -1       101-1.05589E-04 4.00190E-04 1.06346E-03
 -1       102-1.01250E-04 4.34267E-04 1.52863E-03
 -1       103-1.01384E-04 1.34751E-03 1.88924E-03
 -1       104-1.15302E-04 2.27616E-03 1.84775E-03
 -1       105-1.01910E-04 2.28485E-03 1.84632E-03
 -1       106-8.85199E-05 2.27627E-03 1.84825E-03
 -1       107-1.02488E-04 3.09596E-03 1.77699E-03
 -1       108-1.24003E-04 3.79886E-03 1.67937E-03
 -1       109-1.03079E-04 3.81130E-03 1.67601E-03
 -1       110-8.21483E-05 3.79890E-03 1.67984E-03
 -1       111-1.03622E-04 4.33952E-03 1.55634E-03
 -1       112-1.28642E-04 4.77931E-03 1.41763E-03
 -1       113-1.04088E-04 4.79506E-03 1.41634E-03
 -1       114-7.95474E-05 4.77932E-03 1.41794E-03
 -1       115-1.04444E-04 5.00786E-03 1.24959E-03
 -1       116-1.31904E-04 5.16875E-03 1.06920E-03
 -1       117-1.04633E-04 5.33225E-03 1.06924E-03
 -1       118-7.73018E-05 5.16869E-03 1.06929E-03
 -1       119-1.04629E-04 5.00821E-03 8.88870E-04
 -1       120-1.29002E-04 4.77998E-03 7.20690E-04
 -1       121-1.04439E-04 4.79572E-03 7.22054E-04
 -1       122-7.98918E-05 4.77997E-03 7.20532E-04
 -1       123-1.04112E-04 4.34040E-03 5.81980E-04
 -1       124-1.24590E-04 3.79988E-03 4.58822E-04
 -1       125-1.03655E-04 3.81229E-03 4.62218E-04
 -1       126-8.27116E-05 3.79988E-03 4.58423E-04
 -1       127-1.03103E-04 3.09692E-03 3.61161E-04
 -1       128-1.15892E-04 2.27701E-03 2.90373E-04
 -1       129-1.02490E-04 2.28565E-03 2.91773E-04
 -1       130-8.90873E-05 2.27703E-03 2.89822E-04
 -1       131-1.01843E-04 1.34801E-03 2.48841E-04
 -1       132-1.03756E-04 1.34852E-03 1.06852E-03
 -1       133-8.99388E-05 2.30429E-03 1.47895E-03
 -1       134-9.98503E-05 2.32589E-03 1.05786E-03
 -1       135-1.17032E-04 2.27693E-03 6.32715E-04
 -1       136-1.04305E-04 3.12020E-03 1.06686E-03
 -1       137-8.16746E-05 3.83188E-03 1.35717E-03
 -1       138-1.01019E-04 3.85170E-03 1.05849E-03
 -1       139-1.27897E-04 3.82370E-03 7.67629E-04
 -1       140-1.02858E-04 4.39467E-03 1.06450E-03
 -1       141-8.16209E-05 4.79751E-03 1.21024E-03
 -1       142-1.02223E-04 4.82996E-03 1.05948E-03
 -1       143-1.28872E-04 4.81172E-03 9.12964E-04
 -1       144-1.05233E-04 5.06529E-03 1.06332E-03
 -1       145-7.10543E-05 5.15569E-03 1.06922E-03
 -1       146-1.01125E-04 5.17595E-03 1.06913E-03
 -1       147-1.25549E-04 5.16284E-03 1.06904E-03
 -1       148-1.05413E-04 5.06565E-03 1.07494E-03
 -1       149-8.19612E-05 4.79817E-03 9.28155E-04
 -1       150-1.02567E-04 4.83062E-03 1.07878E-03
 -1       151-1.29221E-04 4.81238E-03 1.22515E-03
 -1       152-1.03331E-04 4.39556E-03 1.07376E-03
 -1       153-8.22276E-05 3.83286E-03 7.81111E-04
 -1       154-1.01574E-04 3.85270E-03 1.07976E-03
 -1       155-1.28454E-04 3.82468E-03 1.37060E-03
 -1       156-1.04877E-04 3.12115E-03 1.07138E-03
 -1       157-9.04791E-05 2.30505E-03 6.59167E-04
 -1       158-1.00375E-04 2.32668E-03 1.08036E-03
 -1       159-1.17568E-04 2.27770E-03 1.50562E-03
 -1       160-1.04167E-04 1.34895E-03 1.06965E-03
 -1       161-1.01554E-04 1.32119E-03 2.12318E-04