    1C
    1UUSER                                                              
    1UDATE              15.december.2018                                
    1UTIME              15:54:04                                        
    1UHOST                                                              
    1UPGM               CalculiX                                        
    1UVERSION           Version 2.15                             
    1UCOMPILETIME       Sa 15. Dez 14:32:01 CET 2018                    
    1UDIR                                                               
    1UDBN                                                               
    1UMAT    1WATER                                                     
    2C                             9                                     1
 -1         2-5.00000E-01 0.00000E+00 0.00000E+00
 -1         3 0.00000E+00 0.00000E+00 0.00000E+00
 -1         4 5.00000E+01 0.00000E+00 0.00000E+00
 -1         5 1.00000E+02 0.00000E+00 0.00000E+00
 -1         6 1.00500E+02 0.00000E+00 0.00000E+00
 -1         7 1.01000E+02 0.00000E+00 0.00000E+00
 -1         8 1.51000E+02 0.00000E+00 0.00000E+00
 -1         9 2.01000E+02 0.00000E+00 0.00000E+00
 -1        10 2.01500E+02 0.00000E+00 0.00000E+00
 -3
    3C                             5                                     1
 -1         1   11    0    1
 -2         2         3
 -1         2   12    0    1
 -2         3         5         4
 -1         3   12    0    1
 -2         5         7         6
 -1         4   12    0    1
 -2         7         9         8
 -1         5   11    0    1
 -2         9        10
 -3
    1PSTEP                         1           1           1          
  100CL  101 1.000000000           9                     0    1           1
 -4  MAFLOW      1    1
 -5  MF          1    1    0    0
 -1         2 3.35000E+01
 -1         3 3.35000E+01
 -1         4 3.35000E+01
 -1         5 3.35000E+01
 -1         6 3.35000E+01
 -1         7 3.35000E+01
 -1         8 3.35000E+01
 -1         9 3.35000E+01
 -1        10 3.35000E+01
 -3
    1PSTEP                         2           1           1          
  100CL  101 1.000000000           9                     0    1           1
 -4  TOPRES      1    1
 -5  PT          1    1    0    0
 -1         2 1.10000E+05
 -1         3 1.10000E+05
 -1         4 1.07524E+05
 -1         5 1.05048E+05
 -1         6 1.05000E+05
 -1         7 1.04952E+05
 -1         8 1.02476E+05
 -1         9 1.00000E+05
 -1        10 1.00000E+05
 -3
 9999
