    1C
    1UUSER                                                              
    1UDATE              15.december.2018                                
    1UTIME              15:54:04                                        
    1UHOST                                                              
    1UPGM               CalculiX                                        
    1UVERSION           Version 2.15                             
    1UCOMPILETIME       Sa 15. Dez 14:32:01 CET 2018                    
    1UDIR                                                               
    1UDBN                                                               
    1UMAT    1EL                                                        
    2C                             9                                     1
 -1         1 0.00000E+00 0.00000E+00 0.00000E+00
 -1         2 1.00000E+01 0.00000E+00 0.00000E+00
 -1         3 2.00000E+01 0.00000E+00 0.00000E+00
 -1         4 0.00000E+00 5.00000E+00 0.00000E+00
 -1         5 1.00000E+01 5.00000E+00 0.00000E+00
 -1         6 2.00000E+01 5.00000E+00 0.00000E+00
 -1         7 0.00000E+00 1.00000E+01 0.00000E+00
 -1         8 1.00000E+01 1.00000E+01 0.00000E+00
 -1         9 2.00000E+01 1.00000E+01 0.00000E+00
 -3
    3C                             4                                     1
 -1         1    9    0    1
 -2         1         2         5         4
 -1         2    9    0    1
 -2         2         3         6         5
 -1         3    9    0    1
 -2         5         6         9         8
 -1         4    9    0    1
 -2         4         5         8         7
 -3
    1PSTEP                         1           1           1          
  100CL  101 1.000000000           9                     0    1           1
 -4  DISP        4    1
 -5  D1          1    2    1    0
 -5  D2          1    2    2    0
 -5  D3          1    2    3    0
 -5  ALL         1    2    0    0    1ALL
 -1         1 0.00000E+00 0.00000E+00 0.00000E+00
 -1         2 0.00000E+00 0.00000E+00 0.00000E+00
 -1         3 0.00000E+00 0.00000E+00 0.00000E+00
 -1         4 0.00000E+00 0.00000E+00 0.00000E+00
 -1         5 5.28869E-02 1.63934E-02 0.00000E+00
 -1         6 0.00000E+00 0.00000E+00 0.00000E+00
 -1         7 0.00000E+00 0.00000E+00 0.00000E+00
 -1         8 0.00000E+00 0.00000E+00 0.00000E+00
 -1         9 0.00000E+00 0.00000E+00 0.00000E+00
 -3
 9999
