    1C
    1UUSER                                                              
    1UDATE              15.december.2018                                
    1UTIME              15:54:04                                        
    1UHOST                                                              
    1UPGM               CalculiX                                        
    1UVERSION           Version 2.15                             
    1UCOMPILETIME       Sa 15. Dez 14:32:01 CET 2018                    
    1UDIR                                                               
    1UDBN                                                               
    1UMAT    1EL                                                        
    2C                            20                                     1
 -1         9 1.00000E+00 0.00000E+00-5.00000E-03
 -1        10 1.00000E+00 0.00000E+00 0.00000E+00
 -1        11 1.00000E+00 0.00000E+00 5.00000E-03
 -1        12 0.00000E+00 0.00000E+00-5.00000E-03
 -1        13 0.00000E+00 0.00000E+00 0.00000E+00
 -1        14 0.00000E+00 0.00000E+00 5.00000E-03
 -1        15 0.00000E+00 1.00000E+00-5.00000E-03
 -1        16 0.00000E+00 1.00000E+00 0.00000E+00
 -1        17 0.00000E+00 1.00000E+00 5.00000E-03
 -1        18 1.00000E+00 1.00000E+00-5.00000E-03
 -1        19 1.00000E+00 1.00000E+00 0.00000E+00
 -1        20 1.00000E+00 1.00000E+00 5.00000E-03
 -1        21 1.00000E+00 5.00000E-01-5.00000E-03
 -1        23 1.00000E+00 5.00000E-01 5.00000E-03
 -1        24 5.00000E-01 1.00000E+00-5.00000E-03
 -1        26 5.00000E-01 1.00000E+00 5.00000E-03
 -1        27 0.00000E+00 5.00000E-01-5.00000E-03
 -1        29 0.00000E+00 5.00000E-01 5.00000E-03
 -1        30 5.00000E-01 0.00000E+00-5.00000E-03
 -1        32 5.00000E-01 0.00000E+00 5.00000E-03
 -3
    3C                             1                                     1
 -1         1    4    0    1
 -2         9        18        15        12        11        20        17        14        21        24
 -2        27        30        10        19        16        13        23        26        29        32
 -3
    1PSTEP                         1           1           1          
  100CL  101 1.000000000          20                     0    1           1
 -4  DISP        4    1
 -5  D1          1    2    1    0
 -5  D2          1    2    2    0
 -5  D3          1    2    3    0
 -5  ALL         1    2    0    0    1ALL
 -1         9 0.00000E+00 0.00000E+00 0.00000E+00
 -1        10 0.00000E+00 0.00000E+00 0.00000E+00
 -1        11 0.00000E+00 0.00000E+00 0.00000E+00
 -1        12 1.85714E-04 0.00000E+00 0.00000E+00
 -1        13 1.85714E-04 0.00000E+00 0.00000E+00
 -1        14 1.85714E-04 0.00000E+00 0.00000E+00
 -1        15 1.85714E-04 4.33333E-04 0.00000E+00
 -1        16 1.85714E-04 4.33333E-04 0.00000E+00
 -1        17 1.85714E-04 4.33333E-04 0.00000E+00
 -1        18 2.89002E-12 4.33333E-04 0.00000E+00
 -1        19 2.89002E-12 4.33333E-04 0.00000E+00
 -1        20 2.89002E-12 4.33333E-04 0.00000E+00
 -1        21-1.93019E-13 2.16667E-04 0.00000E+00
 -1        23-1.93019E-13 2.16667E-04 0.00000E+00
 -1        24 9.28571E-05 4.33333E-04 0.00000E+00
 -1        26 9.28571E-05 4.33333E-04 0.00000E+00
 -1        27 1.85714E-04 2.16667E-04 0.00000E+00
 -1        29 1.85714E-04 2.16667E-04 0.00000E+00
 -1        30 9.28571E-05 0.00000E+00 0.00000E+00
 -1        32 9.28571E-05 0.00000E+00 0.00000E+00
 -3
    1PSTEP                         2           1           1          
  100CL  101 1.000000000          20                     0    1           1
 -4  STRESS      6    1
 -5  SXX         1    4    1    1
 -5  SYY         1    4    2    2
 -5  SZZ         1    4    3    3
 -5  SXY         1    4    1    2
 -5  SYZ         1    4    2    3
 -5  SZX         1    4    3    1
 -1         9-4.99245E-07 9.99960E+01 2.99988E+01-2.95785E-07 2.02192E-12 1.54314E-12
 -1        10-4.99243E-07 1.00005E+02 3.00015E+01-2.95785E-07-6.77371E-13 1.87509E-13
 -1        11-4.99245E-07 9.99960E+01 2.99988E+01-2.95785E-07-1.45256E-12-1.82189E-12
 -1        12-4.99064E-07 9.99960E+01 2.99988E+01 2.95918E-07-1.56564E-12 1.11462E-12
 -1        13-4.99063E-07 1.00005E+02 3.00015E+01 2.95918E-07 1.78940E-13-3.31574E-13
 -1        14-4.99064E-07 9.99960E+01 2.99988E+01 2.95918E-07 1.05786E-12-1.32613E-12
 -1        15 8.33944E-07 9.99960E+01 2.99988E+01 1.03703E-06-4.76752E-12 2.29402E-13
 -1        16 8.33945E-07 1.00005E+02 3.00015E+01 1.03703E-06-8.65792E-13-3.04269E-13
 -1        17 8.33944E-07 9.99960E+01 2.99988E+01 1.03703E-06 5.01030E-12-2.20187E-14
 -1        18 8.34112E-07 9.99960E+01 2.99988E+01-1.03696E-06 1.64447E-12 1.63586E-12
 -1        19 8.34113E-07 1.00005E+02 3.00015E+01-1.03696E-06-1.54699E-12 1.56434E-13
 -1        20 8.34112E-07 9.99960E+01 2.99988E+01-1.03696E-06-7.56369E-12-1.61248E-12
 -1        21-7.58611E-07 1.00005E+02 3.00015E+01-6.66387E-07-2.23553E-12 9.42279E-14
 -1        23-7.58611E-07 1.00005E+02 3.00015E+01-6.66387E-07 1.65260E-12-4.05194E-13
 -1        24 1.50883E-06 1.00005E+02 3.00015E+01 3.34886E-11-7.14581E-13 9.91057E-13
 -1        26 1.50883E-06 1.00005E+02 3.00015E+01 3.34781E-11 1.26282E-12-1.38299E-12
 -1        27-7.58605E-07 1.00005E+02 3.00015E+01 6.66458E-07-8.11963E-13 1.02305E-12
 -1        29-7.58605E-07 1.00005E+02 3.00015E+01 6.66458E-07-1.93033E-13 1.73360E-13
 -1        30 1.75652E-07 1.00005E+02 3.00015E+01 6.12519E-11 1.13468E-12 9.98660E-13
 -1        32 1.75652E-07 1.00005E+02 3.00015E+01 6.12528E-11-8.57775E-13-1.14188E-12
 -3
    1PSTEP                         3           1           1          
  100CL  101 1.000000000          20                     0    1           1
 -4  TOSTRAIN    6    1
 -5  EXX         1    4    1    1
 -5  EYY         1    4    2    2
 -5  EZZ         1    4    3    3
 -5  EXY         1    4    1    2
 -5  EYZ         1    4    2    3
 -5  EZX         1    4    3    1
 -1         9-1.85707E-04 4.33316E-04 0.00000E+00-1.83105E-12 1.25167E-17 9.55277E-18
 -1        10-1.85724E-04 4.33355E-04 0.00000E+00-1.83105E-12-4.19325E-18 1.16077E-18
 -1        11-1.85707E-04 4.33316E-04 0.00000E+00-1.83105E-12-8.99202E-18-1.12783E-17
 -1        12-1.85707E-04 4.33316E-04 0.00000E+00 1.83187E-12-9.69204E-18 6.90002E-18
 -1        13-1.85724E-04 4.33355E-04 0.00000E+00 1.83187E-12 1.10772E-18-2.05260E-18
 -1        14-1.85707E-04 4.33316E-04 0.00000E+00 1.83187E-12 6.54864E-18-8.20935E-18
 -1        15-1.85707E-04 4.33316E-04 0.00000E+00 6.41973E-12-2.95132E-17 1.42011E-18
 -1        16-1.85724E-04 4.33355E-04 0.00000E+00 6.41973E-12-5.35967E-18-1.88357E-18
 -1        17-1.85707E-04 4.33316E-04 0.00000E+00 6.41973E-12 3.10161E-17-1.36306E-19
 -1        18-1.85707E-04 4.33316E-04 0.00000E+00-6.41925E-12 1.01801E-17 1.01268E-17
 -1        19-1.85724E-04 4.33355E-04 0.00000E+00-6.41925E-12-9.57660E-18 9.68402E-19
 -1        20-1.85707E-04 4.33316E-04 0.00000E+00-6.41925E-12-4.68229E-17-9.98199E-18
 -1        21-1.85724E-04 4.33355E-04 0.00000E+00-4.12525E-12-1.38390E-17 5.83316E-19
 -1        23-1.85724E-04 4.33355E-04 0.00000E+00-4.12525E-12 1.02304E-17-2.50834E-18
 -1        24-1.85724E-04 4.33355E-04 0.00000E+00 2.07310E-16-4.42359E-18 6.13512E-18
 -1        26-1.85724E-04 4.33355E-04 0.00000E+00 2.07246E-16 7.81747E-18-8.56138E-18
 -1        27-1.85724E-04 4.33355E-04 0.00000E+00 4.12570E-12-5.02643E-18 6.33316E-18
 -1        29-1.85724E-04 4.33355E-04 0.00000E+00 4.12570E-12-1.19497E-18 1.07318E-18
 -1        30-1.85724E-04 4.33355E-04 0.00000E+00 3.79178E-16 7.02421E-18 6.18218E-18
 -1        32-1.85724E-04 4.33355E-04 0.00000E+00 3.79184E-16-5.31004E-18-7.06876E-18
 -3
    1PSTEP                         4           1           1          
  100CL  101 1.000000000          20                     0    1           1
 -4  FORC        4    1
 -5  F1          1    2    1    0
 -5  F2          1    2    2    0
 -5  F3          1    2    3    0
 -5  ALL         1    2    0    0    1ALL
 -1         9-2.25419E-13 8.33333E-02 2.50000E+00
 -1        10-2.99547E-13-3.33333E-01 8.88178E-16
 -1        11-2.37039E-13 8.33333E-02-2.50000E+00
 -1        12-5.13930E-14 8.33333E-02 2.50000E+00
 -1        13 4.40077E-13-3.33333E-01-1.77636E-15
 -1        14-6.44949E-14 8.33333E-02-2.50000E+00
 -1        15-9.23329E-14-8.33333E-02 2.50000E+00
 -1        16 2.86255E-13 3.33333E-01 1.77636E-15
 -1        17-1.07148E-13-8.33333E-02-2.50000E+00
 -1        18-9.65249E-14-8.33333E-02 2.50000E+00
 -1        19 3.34669E-13 3.33333E-01 1.77636E-15
 -1        20-1.13112E-13-8.33333E-02-2.50000E+00
 -1        21 1.96220E-14 8.65581E-14-1.00000E+01
 -1        23 4.33775E-14 1.94554E-13 1.00000E+01
 -1        24 3.65293E-14 3.33333E-01-1.00000E+01
 -1        26 3.85563E-14 3.33333E-01 1.00000E+01
 -1        27 2.51686E-14 1.66659E-13-1.00000E+01
 -1        29 9.67417E-14 2.30744E-13 1.00000E+01
 -1        30-3.88528E-14-3.33333E-01-1.00000E+01
 -1        32 4.86690E-15-3.33333E-01 1.00000E+01
 -3
 9999
