    1C
    1UUSER                                                              
    1UDATE              15.december.2018                                
    1UTIME              15:54:11                                        
    1UHOST                                                              
    1UPGM               CalculiX                                        
    1UVERSION           Version 2.15                             
    1UCOMPILETIME       Sa 15. Dez 14:32:01 CET 2018                    
    1UDIR                                                               
    1UDBN                                                               
    1UMAT    1EL                                                        
    2C                           168                                     1
 -1         1 2.50000E-01 3.00000E-01 0.00000E+00
 -1         2 2.50000E-01 0.00000E+00 0.00000E+00
 -1         3 2.50000E-01 0.00000E+00 3.00000E-01
 -1         4 2.50000E-01 3.00000E-01 3.00000E-01
 -1         5 0.00000E+00 3.00000E-01 0.00000E+00
 -1         6 0.00000E+00 0.00000E+00 0.00000E+00
 -1         7 0.00000E+00 0.00000E+00 3.00000E-01
 -1         8 0.00000E+00 3.00000E-01 3.00000E-01
 -1         9 2.50000E-01 1.50000E-01 0.00000E+00
 -1        10 2.50000E-01 0.00000E+00 1.50000E-01
 -1        11 2.50000E-01 1.50000E-01 3.00000E-01
 -1        12 2.50000E-01 3.00000E-01 1.50000E-01
 -1        13 1.25000E-01 3.00000E-01 0.00000E+00
 -1        14 1.25000E-01 0.00000E+00 0.00000E+00
 -1        15 1.25000E-01 0.00000E+00 3.00000E-01
 -1        16 1.25000E-01 3.00000E-01 3.00000E-01
 -1        17 0.00000E+00 1.50000E-01 0.00000E+00
 -1        18 0.00000E+00 0.00000E+00 1.50000E-01
 -1        19 0.00000E+00 1.50000E-01 3.00000E-01
 -1        20 0.00000E+00 3.00000E-01 1.50000E-01
 -1        21 7.50000E-01 3.00000E-01 0.00000E+00
 -1        22 7.50000E-01 0.00000E+00 0.00000E+00
 -1        23 7.50000E-01 0.00000E+00 3.00000E-01
 -1        24 7.50000E-01 3.00000E-01 3.00000E-01
 -1        25 7.50000E-01 1.50000E-01 0.00000E+00
 -1        26 7.50000E-01 0.00000E+00 1.50000E-01
 -1        27 7.50000E-01 1.50000E-01 3.00000E-01
 -1        28 7.50000E-01 3.00000E-01 1.50000E-01
 -1        29 5.00000E-01 3.00000E-01 0.00000E+00
 -1        30 5.00000E-01 0.00000E+00 0.00000E+00
 -1        31 5.00000E-01 0.00000E+00 3.00000E-01
 -1        32 5.00000E-01 3.00000E-01 3.00000E-01
 -1        33 1.00000E+00 3.00000E-01 0.00000E+00
 -1        34 1.00000E+00 0.00000E+00 0.00000E+00
 -1        35 1.00000E+00 0.00000E+00 3.00000E-01
 -1        36 1.00000E+00 3.00000E-01 3.00000E-01
 -1        37 1.00000E+00 1.50000E-01 0.00000E+00
 -1        38 1.00000E+00 0.00000E+00 1.50000E-01
 -1        39 1.00000E+00 1.50000E-01 3.00000E-01
 -1        40 1.00000E+00 3.00000E-01 1.50000E-01
 -1        41 8.75000E-01 3.00000E-01 0.00000E+00
 -1        42 8.75000E-01 0.00000E+00 0.00000E+00
 -1        43 8.75000E-01 0.00000E+00 3.00000E-01
 -1        44 8.75000E-01 3.00000E-01 3.00000E-01
 -1        45 2.50000E-01 3.50000E-01 0.00000E+00
 -1        46 2.50000E-01 3.50000E-01 3.00000E-01
 -1        47 0.00000E+00 3.50000E-01 0.00000E+00
 -1        48 0.00000E+00 3.50000E-01 3.00000E-01
 -1        49 2.50000E-01 3.25000E-01 0.00000E+00
 -1        50 2.50000E-01 3.25000E-01 3.00000E-01
 -1        51 2.50000E-01 3.50000E-01 1.50000E-01
 -1        52 1.25000E-01 3.50000E-01 0.00000E+00
 -1        53 1.25000E-01 3.50000E-01 3.00000E-01
 -1        54 0.00000E+00 3.25000E-01 0.00000E+00
 -1        55 0.00000E+00 3.25000E-01 3.00000E-01
 -1        56 0.00000E+00 3.50000E-01 1.50000E-01
 -1        57 1.00000E+00 3.50000E-01 0.00000E+00
 -1        58 1.00000E+00 3.50000E-01 3.00000E-01
 -1        59 7.50000E-01 3.50000E-01 0.00000E+00
 -1        60 7.50000E-01 3.50000E-01 3.00000E-01
 -1        61 1.00000E+00 3.25000E-01 0.00000E+00
 -1        62 1.00000E+00 3.25000E-01 3.00000E-01
 -1        63 1.00000E+00 3.50000E-01 1.50000E-01
 -1        64 8.75000E-01 3.50000E-01 0.00000E+00
 -1        65 8.75000E-01 3.50000E-01 3.00000E-01
 -1        66 7.50000E-01 3.25000E-01 0.00000E+00
 -1        67 7.50000E-01 3.25000E-01 3.00000E-01
 -1        68 7.50000E-01 3.50000E-01 1.50000E-01
 -1        69 2.50000E-01 6.50000E-01 0.00000E+00
 -1        70 2.50000E-01 6.50000E-01 3.00000E-01
 -1        71 0.00000E+00 6.50000E-01 0.00000E+00
 -1        72 0.00000E+00 6.50000E-01 3.00000E-01
 -1        73 2.50000E-01 5.00000E-01 0.00000E+00
 -1        74 2.50000E-01 5.00000E-01 3.00000E-01
 -1        75 2.50000E-01 6.50000E-01 1.50000E-01
 -1        76 1.25000E-01 6.50000E-01 0.00000E+00
 -1        77 1.25000E-01 6.50000E-01 3.00000E-01
 -1        78 0.00000E+00 5.00000E-01 0.00000E+00
 -1        79 0.00000E+00 5.00000E-01 3.00000E-01
 -1        80 0.00000E+00 6.50000E-01 1.50000E-01
 -1        81 7.50000E-01 6.50000E-01 0.00000E+00
 -1        82 7.50000E-01 6.50000E-01 3.00000E-01
 -1        83 5.00000E-01 6.50000E-01 0.00000E+00
 -1        84 5.00000E-01 3.50000E-01 0.00000E+00
 -1        85 5.00000E-01 3.50000E-01 3.00000E-01
 -1        86 5.00000E-01 6.50000E-01 3.00000E-01
 -1        87 7.50000E-01 5.00000E-01 0.00000E+00
 -1        88 7.50000E-01 5.00000E-01 3.00000E-01
 -1        89 7.50000E-01 6.50000E-01 1.50000E-01
 -1        90 6.25000E-01 6.50000E-01 0.00000E+00
 -1        91 6.25000E-01 3.50000E-01 0.00000E+00
 -1        92 6.25000E-01 3.50000E-01 3.00000E-01
 -1        93 6.25000E-01 6.50000E-01 3.00000E-01
 -1        94 5.00000E-01 5.00000E-01 0.00000E+00
 -1        95 5.00000E-01 3.50000E-01 1.50000E-01
 -1        96 5.00000E-01 5.00000E-01 3.00000E-01
 -1        97 5.00000E-01 6.50000E-01 1.50000E-01
 -1        98 3.75000E-01 6.50000E-01 0.00000E+00
 -1        99 3.75000E-01 3.50000E-01 0.00000E+00
 -1       100 3.75000E-01 3.50000E-01 3.00000E-01
 -1       101 3.75000E-01 6.50000E-01 3.00000E-01
 -1       102 1.00000E+00 6.50000E-01 0.00000E+00
 -1       103 1.00000E+00 6.50000E-01 3.00000E-01
 -1       104 1.00000E+00 5.00000E-01 0.00000E+00
 -1       105 1.00000E+00 5.00000E-01 3.00000E-01
 -1       106 1.00000E+00 6.50000E-01 1.50000E-01
 -1       107 8.75000E-01 6.50000E-01 0.00000E+00
 -1       108 8.75000E-01 6.50000E-01 3.00000E-01
 -1       109 2.50000E-01 7.00000E-01 0.00000E+00
 -1       110 2.50000E-01 7.00000E-01 3.00000E-01
 -1       111 0.00000E+00 7.00000E-01 0.00000E+00
 -1       112 0.00000E+00 7.00000E-01 3.00000E-01
 -1       113 2.50000E-01 6.75000E-01 0.00000E+00
 -1       114 2.50000E-01 6.75000E-01 3.00000E-01
 -1       115 2.50000E-01 7.00000E-01 1.50000E-01
 -1       116 1.25000E-01 7.00000E-01 0.00000E+00
 -1       117 1.25000E-01 7.00000E-01 3.00000E-01
 -1       118 0.00000E+00 6.75000E-01 0.00000E+00
 -1       119 0.00000E+00 6.75000E-01 3.00000E-01
 -1       120 0.00000E+00 7.00000E-01 1.50000E-01
 -1       121 1.00000E+00 7.00000E-01 0.00000E+00
 -1       122 1.00000E+00 7.00000E-01 3.00000E-01
 -1       123 7.50000E-01 7.00000E-01 0.00000E+00
 -1       124 7.50000E-01 7.00000E-01 3.00000E-01
 -1       125 1.00000E+00 6.75000E-01 0.00000E+00
 -1       126 1.00000E+00 6.75000E-01 3.00000E-01
 -1       127 1.00000E+00 7.00000E-01 1.50000E-01
 -1       128 8.75000E-01 7.00000E-01 0.00000E+00
 -1       129 8.75000E-01 7.00000E-01 3.00000E-01
 -1       130 7.50000E-01 6.75000E-01 0.00000E+00
 -1       131 7.50000E-01 6.75000E-01 3.00000E-01
 -1       132 7.50000E-01 7.00000E-01 1.50000E-01
 -1       133 2.50000E-01 1.00000E+00 0.00000E+00
 -1       134 2.50000E-01 1.00000E+00 3.00000E-01
 -1       135 0.00000E+00 1.00000E+00 0.00000E+00
 -1       136 0.00000E+00 1.00000E+00 3.00000E-01
 -1       137 2.50000E-01 8.50000E-01 0.00000E+00
 -1       138 2.50000E-01 8.50000E-01 3.00000E-01
 -1       139 2.50000E-01 1.00000E+00 1.50000E-01
 -1       140 1.25000E-01 1.00000E+00 0.00000E+00
 -1       141 1.25000E-01 1.00000E+00 3.00000E-01
 -1       142 0.00000E+00 8.50000E-01 0.00000E+00
 -1       143 0.00000E+00 8.50000E-01 3.00000E-01
 -1       144 0.00000E+00 1.00000E+00 1.50000E-01
 -1       145 7.50000E-01 1.00000E+00 0.00000E+00
 -1       146 7.50000E-01 1.00000E+00 3.00000E-01
 -1       147 7.50000E-01 8.50000E-01 0.00000E+00
 -1       148 7.50000E-01 8.50000E-01 3.00000E-01
 -1       149 7.50000E-01 1.00000E+00 1.50000E-01
 -1       150 5.00000E-01 1.00000E+00 0.00000E+00
 -1       151 5.00000E-01 7.00000E-01 0.00000E+00
 -1       152 5.00000E-01 7.00000E-01 3.00000E-01
 -1       153 5.00000E-01 1.00000E+00 3.00000E-01
 -1       154 1.00000E+00 1.00000E+00 0.00000E+00
 -1       155 1.00000E+00 1.00000E+00 3.00000E-01
 -1       156 1.00000E+00 8.50000E-01 0.00000E+00
 -1       157 1.00000E+00 8.50000E-01 3.00000E-01
 -1       158 1.00000E+00 1.00000E+00 1.50000E-01
 -1       159 8.75000E-01 1.00000E+00 0.00000E+00
 -1       160 8.75000E-01 1.00000E+00 3.00000E-01
 -1       162 5.00000E-01 6.50000E-01 0.00000E+00
 -1       163 5.00000E-01 3.50000E-01 0.00000E+00
 -1       164 5.00000E-01 3.50000E-01 3.00000E-01
 -1       165 5.00000E-01 6.50000E-01 3.00000E-01
 -1       166 5.00000E-01 5.00000E-01 0.00000E+00
 -1       167 5.00000E-01 3.50000E-01 1.50000E-01
 -1       168 5.00000E-01 5.00000E-01 3.00000E-01
 -1       169 5.00000E-01 6.50000E-01 1.50000E-01
 -3
    3C                            14                                     1
 -1         1    4    0    1
 -2         1         2         3         4         5         6         7         8         9        10
 -2        11        12        13        14        15        16        17        18        19        20
 -1         2    4    0    1
 -2        21        22        23        24         1         2         3         4        25        26
 -2        27        28        29        30        31        32         9        10        11        12
 -1         3    4    0    1
 -2        33        34        35        36        21        22        23        24        37        38
 -2        39        40        41        42        43        44        25        26        27        28
 -1         4    4    0    1
 -2        45         1         4        46        47         5         8        48        49        12
 -2        50        51        52        13        16        53        54        20        55        56
 -1         5    4    0    1
 -2        57        33        36        58        59        21        24        60        61        40
 -2        62        63        64        41        44        65        66        28        67        68
 -1         6    4    0    1
 -2        69        45        46        70        71        47        48        72        73        51
 -2        74        75        76        52        53        77        78        56        79        80
 -1         7    4    0    1
 -2        81        59        60        82       162       163       164       165        87        68
 -2        88        89        90        91        92        93       166       167       168       169
 -1         8    4    0    1
 -2        83        84        85        86        69        45        46        70        94        95
 -2        96        97        98        99       100       101        73        51        74        75
 -1         9    4    0    1
 -2       102        57        58       103        81        59        60        82       104        63
 -2       105       106       107        64        65       108        87        68        88        89
 -1        10    4    0    1
 -2       109        69        70       110       111        71        72       112       113        75
 -2       114       115       116        76        77       117       118        80       119       120
 -1        11    4    0    1
 -2       121       102       103       122       123        81        82       124       125       106
 -2       126       127       128       107       108       129       130        89       131       132
 -1        12    4    0    1
 -2       133       109       110       134       135       111       112       136       137       115
 -2       138       139       140       116       117       141       142       120       143       144
 -1        13    4    0    1
 -2       145       123       124       146       133       109       110       134       147       132
 -2       148       149       150       151       152       153       137       115       138       139
 -1        14    4    0    1
 -2       154       121       122       155       145       123       124       146       156       127
 -2       157       158       159       128       129       160       147       132       148       149
 -3
    1PSTEP                         1           1           1          
  100CL  101 1.000000000         168                     0    1           1
 -4  DISP        4    1
 -5  D1          1    2    1    0
 -5  D2          1    2    2    0
 -5  D3          1    2    3    0
 -5  ALL         1    2    0    0    1ALL
 -1         1 5.44129E-05-3.61345E-05-3.29702E-05
 -1         2-1.25842E-04 4.25734E-05-6.28144E-06
 -1         3-1.25842E-04 4.25734E-05-4.40921E-05
 -1         4 5.44129E-05-3.61345E-05-1.74034E-05
 -1         5-1.15615E-03 1.73231E-04 4.83101E-04
 -1         6 1.63936E-04 1.32342E-04-2.04087E-04
 -1         7 1.63936E-04 1.32342E-04 1.53713E-04
 -1         8-1.15615E-03 1.73231E-04-5.33474E-04
 -1         9-7.50721E-05 1.31936E-05-2.91255E-05
 -1        10-6.31031E-05 4.33330E-05-2.51868E-05
 -1        11-7.50721E-05 1.31936E-05-2.12480E-05
 -1        12-9.07368E-05-4.39489E-05-2.51868E-05
 -1        13-4.49519E-04 6.63255E-05-5.64931E-05
 -1        14-4.69378E-05 1.39869E-04-1.99277E-05
 -1        15-4.69378E-05 1.39869E-04-3.04459E-05
 -1        16-4.49519E-04 6.63255E-05 6.11950E-06
 -1        17-3.92962E-04 1.51582E-04 1.64678E-04
 -1        18-2.35056E-04 3.62426E-05-2.51868E-05
 -1        19-3.92962E-04 1.51582E-04-2.15052E-04
 -1        20-1.09692E-04 1.77415E-04-2.51868E-05
 -1        21-5.44129E-05-3.61345E-05-3.29702E-05
 -1        22 1.25842E-04 4.25734E-05-6.28144E-06
 -1        23 1.25842E-04 4.25734E-05-4.40921E-05
 -1        24-5.44129E-05-3.61345E-05-1.74034E-05
 -1        25 7.50721E-05 1.31936E-05-2.91255E-05
 -1        26 6.31031E-05 4.33330E-05-2.51868E-05
 -1        27 7.50721E-05 1.31936E-05-2.12480E-05
 -1        28 9.07368E-05-4.39489E-05-2.51868E-05
 -1        29 0.00000E+00-2.82797E-05 4.56733E-06
 -1        30 0.00000E+00 0.00000E+00 0.00000E+00
 -1        31 0.00000E+00 0.00000E+00-5.03736E-05
 -1        32 0.00000E+00-2.82797E-05-5.49409E-05
 -1        33 1.15615E-03 1.73231E-04 4.83101E-04
 -1        34-1.63936E-04 1.32342E-04-2.04087E-04
 -1        35-1.63936E-04 1.32342E-04 1.53713E-04
 -1        36 1.15615E-03 1.73231E-04-5.33474E-04
 -1        37 3.92962E-04 1.51582E-04 1.64678E-04
 -1        38 2.35056E-04 3.62426E-05-2.51868E-05
 -1        39 3.92962E-04 1.51582E-04-2.15052E-04
 -1        40 1.09692E-04 1.77415E-04-2.51868E-05
 -1        41 4.49519E-04 6.63255E-05-5.64931E-05
 -1        42 4.69378E-05 1.39869E-04-1.99277E-05
 -1        43 4.69378E-05 1.39869E-04-3.04459E-05
 -1        44 4.49519E-04 6.63255E-05 6.11950E-06
 -1        45 1.19161E-04-8.80653E-05-7.06446E-06
 -1        46 1.19161E-04-8.80653E-05-4.33091E-05
 -1        47-3.00568E-04 2.10747E-04 2.35958E-04
 -1        48-3.00568E-04 2.10747E-04-2.86332E-04
 -1        49 6.65091E-05-6.57886E-05-2.50067E-05
 -1        50 6.65091E-05-6.57886E-05-2.53668E-05
 -1        51 1.22444E-04-7.50875E-05-2.51868E-05
 -1        52-1.14948E-04 3.55326E-06-1.25321E-05
 -1        53-1.14948E-04 3.55326E-06-3.78415E-05
 -1        54-7.13849E-04 1.92132E-04 3.69427E-04
 -1        55-7.13849E-04 1.92132E-04-4.19800E-04
 -1        56-2.47668E-05 2.74628E-04-2.51868E-05
 -1        57 3.00568E-04 2.10747E-04 2.35958E-04
 -1        58 3.00568E-04 2.10747E-04-2.86332E-04
 -1        59-1.19161E-04-8.80653E-05-7.06446E-06
 -1        60-1.19161E-04-8.80653E-05-4.33091E-05
 -1        61 7.13849E-04 1.92132E-04 3.69427E-04
 -1        62 7.13849E-04 1.92132E-04-4.19800E-04
 -1        63 2.47668E-05 2.74628E-04-2.51868E-05
 -1        64 1.14948E-04 3.55326E-06-1.25321E-05
 -1        65 1.14948E-04 3.55326E-06-3.78415E-05
 -1        66-6.65091E-05-6.57886E-05-2.50067E-05
 -1        67-6.65091E-05-6.57886E-05-2.53668E-05
 -1        68-1.22444E-04-7.50875E-05-2.51868E-05
 -1        69 5.94769E-04-2.90497E-05 3.45627E-06
 -1        70 5.94769E-04-2.90497E-05-5.38298E-05
 -1        71 9.04644E-04 1.98860E-05-3.31266E-04
 -1        72 9.04644E-04 1.98860E-05 2.80892E-04
 -1        73 4.12328E-04-1.35642E-04 3.06007E-06
 -1        74 4.12328E-04-1.35642E-04-5.34336E-05
 -1        75 5.75887E-04-9.87714E-06-2.51868E-05
 -1        76 7.66886E-04-4.35245E-05-3.54150E-05
 -1        77 7.66886E-04-4.35245E-05-1.49585E-05
 -1        78 3.80936E-04 1.92867E-04-5.53798E-05
 -1        79 3.80936E-04 1.92867E-04 5.00623E-06
 -1        80 5.96813E-04 7.80836E-05-2.51868E-05
 -1        81-5.94769E-04-2.90497E-05 3.45627E-06
 -1        82-5.94769E-04-2.90497E-05-5.38298E-05
 -1        83 5.10056E-04-2.99523E-04-2.83414E-05
 -1        84 5.10056E-04-2.90392E-04 5.37937E-05
 -1        85 5.10056E-04-2.90392E-04-1.04167E-04
 -1        86 5.10056E-04-2.99523E-04-2.20322E-05
 -1        87-4.12328E-04-1.35642E-04 3.06007E-06
 -1        88-4.12328E-04-1.35642E-04-5.34336E-05
 -1        89-5.75887E-04-9.87714E-06-2.51868E-05
 -1        90-5.38291E-04-2.33549E-04-2.11402E-05
 -1        91-3.20909E-04-2.15973E-04 3.57983E-05
 -1        92-3.20909E-04-2.15973E-04-8.61719E-05
 -1        93-5.38291E-04-2.33549E-04-2.92334E-05
 -1        94 5.10056E-04-2.89426E-04-2.47638E-06
 -1        95 5.10056E-04-2.63579E-04-2.51868E-05
 -1        96 5.10056E-04-2.89426E-04-4.78972E-05
 -1        97 5.10056E-04-2.92220E-04-2.51868E-05
 -1        98 5.38291E-04-2.33549E-04-2.11402E-05
 -1        99 3.20909E-04-2.15973E-04 3.57983E-05
 -1       100 3.20909E-04-2.15973E-04-8.61719E-05
 -1       101 5.38291E-04-2.33549E-04-2.92334E-05
 -1       102-9.04644E-04 1.98860E-05-3.31266E-04
 -1       103-9.04644E-04 1.98860E-05 2.80892E-04
 -1       104-3.80936E-04 1.92867E-04-5.53798E-05
 -1       105-3.80936E-04 1.92867E-04 5.00623E-06
 -1       106-5.96813E-04 7.80836E-05-2.51868E-05
 -1       107-7.66886E-04-4.35245E-05-3.54150E-05
 -1       108-7.66886E-04-4.35245E-05-1.49585E-05
 -1       109 3.69712E-04 9.52538E-05-4.17683E-05
 -1       110 3.69712E-04 9.52538E-05-8.60527E-06
 -1       111 1.66365E-03-5.87999E-05-5.57170E-04
 -1       112 1.66365E-03-5.87999E-05 5.06796E-04
 -1       113 5.04993E-04 2.97586E-05-1.10739E-05
 -1       114 5.04993E-04 2.97586E-05-3.92997E-05
 -1       115 5.25017E-04 8.20249E-05-2.51868E-05
 -1       116 9.61294E-04 9.56510E-06 6.99377E-07
 -1       117 9.61294E-04 9.56510E-06-5.10730E-05
 -1       118 1.27224E-03-2.31389E-05-4.55461E-04
 -1       119 1.27224E-03-2.31389E-05 4.05087E-04
 -1       120 5.98477E-04-5.40194E-05-2.51868E-05
 -1       121-1.66365E-03-5.87999E-05-5.57170E-04
 -1       122-1.66365E-03-5.87999E-05 5.06796E-04
 -1       123-3.69712E-04 9.52538E-05-4.17683E-05
 -1       124-3.69712E-04 9.52538E-05-8.60527E-06
 -1       125-1.27224E-03-2.31389E-05-4.55461E-04
 -1       126-1.27224E-03-2.31389E-05 4.05087E-04
 -1       127-5.98477E-04-5.40194E-05-2.51868E-05
 -1       128-9.61294E-04 9.56510E-06 6.99377E-07
 -1       129-9.61294E-04 9.56510E-06-5.10730E-05
 -1       130-5.04993E-04 2.97586E-05-1.10739E-05
 -1       131-5.04993E-04 2.97586E-05-3.92997E-05
 -1       132-5.25017E-04 8.20249E-05-2.51868E-05
 -1       133 1.66925E-05 2.53667E-04-3.01839E-05
 -1       134 1.66925E-05 2.53667E-04-2.01897E-05
 -1       135-3.14049E-04-1.58636E-04 1.64267E-04
 -1       136-3.14049E-04-1.58636E-04-2.14640E-04
 -1       137 1.85196E-04 2.13336E-04-3.44622E-05
 -1       138 1.85196E-04 2.13336E-04-1.59113E-05
 -1       139-4.57203E-05 2.32852E-04-2.51868E-05
 -1       140-9.53770E-05 1.21206E-04-2.11487E-05
 -1       141-9.53770E-05 1.21206E-04-2.92249E-05
 -1       142 5.67338E-04-1.34259E-04-2.27884E-04
 -1       143 5.67338E-04-1.34259E-04 1.77510E-04
 -1       144 8.86241E-05-2.60054E-04-2.51868E-05
 -1       145-1.66925E-05 2.53667E-04-3.01839E-05
 -1       146-1.66925E-05 2.53667E-04-2.01897E-05
 -1       147-1.85196E-04 2.13336E-04-3.44622E-05
 -1       148-1.85196E-04 2.13336E-04-1.59113E-05
 -1       149 4.57203E-05 2.32852E-04-2.51868E-05
 -1       150 0.00000E+00 4.16245E-04-2.83203E-05
 -1       151 0.00000E+00 3.47814E-04-1.22755E-04
 -1       152 0.00000E+00 3.47814E-04 7.23810E-05
 -1       153 0.00000E+00 4.16245E-04-2.20533E-05
 -1       154 3.14049E-04-1.58636E-04 1.64267E-04
 -1       155 3.14049E-04-1.58636E-04-2.14640E-04
 -1       156-5.67338E-04-1.34259E-04-2.27884E-04
 -1       157-5.67338E-04-1.34259E-04 1.77510E-04
 -1       158-8.86241E-05-2.60054E-04-2.51868E-05
 -1       159 9.53770E-05 1.21206E-04-2.11487E-05
 -1       160 9.53770E-05 1.21206E-04-2.92249E-05
 -1       162-5.10056E-04-2.99523E-04-2.83414E-05
 -1       163-5.10056E-04-2.90392E-04 5.37937E-05
 -1       164-5.10056E-04-2.90392E-04-1.04167E-04
 -1       165-5.10056E-04-2.99523E-04-2.20322E-05
 -1       166-5.10056E-04-2.89426E-04-2.47638E-06
 -1       167-5.10056E-04-2.63579E-04-2.51868E-05
 -1       168-5.10056E-04-2.89426E-04-4.78972E-05
 -1       169-5.10056E-04-2.92220E-04-2.51868E-05
 -3
 9999
