    1C
    1UUSER                                                              
    1UDATE              15.december.2018                                
    1UTIME              15:54:11                                        
    1UHOST                                                              
    1UPGM               CalculiX                                        
    1UVERSION           Version 2.15                             
    1UCOMPILETIME       Sa 15. Dez 14:32:01 CET 2018                    
    1UDIR                                                               
    1UDBN                                                               
    1UMAT    1EL                                                        
    2C                           168                                     1
 -1         1 2.50000E-01 3.00000E-01 0.00000E+00
 -1         2 2.50000E-01 0.00000E+00 0.00000E+00
 -1         3 2.50000E-01 0.00000E+00 3.00000E-01
 -1         4 2.50000E-01 3.00000E-01 3.00000E-01
 -1         5 0.00000E+00 3.00000E-01 0.00000E+00
 -1         6 0.00000E+00 0.00000E+00 0.00000E+00
 -1         7 0.00000E+00 0.00000E+00 3.00000E-01
 -1         8 0.00000E+00 3.00000E-01 3.00000E-01
 -1         9 2.50000E-01 1.50000E-01 0.00000E+00
 -1        10 2.50000E-01 0.00000E+00 1.50000E-01
 -1        11 2.50000E-01 1.50000E-01 3.00000E-01
 -1        12 2.50000E-01 3.00000E-01 1.50000E-01
 -1        13 1.25000E-01 3.00000E-01 0.00000E+00
 -1        14 1.25000E-01 0.00000E+00 0.00000E+00
 -1        15 1.25000E-01 0.00000E+00 3.00000E-01
 -1        16 1.25000E-01 3.00000E-01 3.00000E-01
 -1        17 0.00000E+00 1.50000E-01 0.00000E+00
 -1        18 0.00000E+00 0.00000E+00 1.50000E-01
 -1        19 0.00000E+00 1.50000E-01 3.00000E-01
 -1        20 0.00000E+00 3.00000E-01 1.50000E-01
 -1        21 7.50000E-01 3.00000E-01 0.00000E+00
 -1        22 7.50000E-01 0.00000E+00 0.00000E+00
 -1        23 7.50000E-01 0.00000E+00 3.00000E-01
 -1        24 7.50000E-01 3.00000E-01 3.00000E-01
 -1        25 7.50000E-01 1.50000E-01 0.00000E+00
 -1        26 7.50000E-01 0.00000E+00 1.50000E-01
 -1        27 7.50000E-01 1.50000E-01 3.00000E-01
 -1        28 7.50000E-01 3.00000E-01 1.50000E-01
 -1        29 5.00000E-01 3.00000E-01 0.00000E+00
 -1        30 5.00000E-01 0.00000E+00 0.00000E+00
 -1        31 5.00000E-01 0.00000E+00 3.00000E-01
 -1        32 5.00000E-01 3.00000E-01 3.00000E-01
 -1        33 1.00000E+00 3.00000E-01 0.00000E+00
 -1        34 1.00000E+00 0.00000E+00 0.00000E+00
 -1        35 1.00000E+00 0.00000E+00 3.00000E-01
 -1        36 1.00000E+00 3.00000E-01 3.00000E-01
 -1        37 1.00000E+00 1.50000E-01 0.00000E+00
 -1        38 1.00000E+00 0.00000E+00 1.50000E-01
 -1        39 1.00000E+00 1.50000E-01 3.00000E-01
 -1        40 1.00000E+00 3.00000E-01 1.50000E-01
 -1        41 8.75000E-01 3.00000E-01 0.00000E+00
 -1        42 8.75000E-01 0.00000E+00 0.00000E+00
 -1        43 8.75000E-01 0.00000E+00 3.00000E-01
 -1        44 8.75000E-01 3.00000E-01 3.00000E-01
 -1        45 2.50000E-01 3.50000E-01 0.00000E+00
 -1        46 2.50000E-01 3.50000E-01 3.00000E-01
 -1        47 0.00000E+00 3.50000E-01 0.00000E+00
 -1        48 0.00000E+00 3.50000E-01 3.00000E-01
 -1        49 2.50000E-01 3.25000E-01 0.00000E+00
 -1        50 2.50000E-01 3.25000E-01 3.00000E-01
 -1        51 2.50000E-01 3.50000E-01 1.50000E-01
 -1        52 1.25000E-01 3.50000E-01 0.00000E+00
 -1        53 1.25000E-01 3.50000E-01 3.00000E-01
 -1        54 0.00000E+00 3.25000E-01 0.00000E+00
 -1        55 0.00000E+00 3.25000E-01 3.00000E-01
 -1        56 0.00000E+00 3.50000E-01 1.50000E-01
 -1        57 1.00000E+00 3.50000E-01 0.00000E+00
 -1        58 1.00000E+00 3.50000E-01 3.00000E-01
 -1        59 7.50000E-01 3.50000E-01 0.00000E+00
 -1        60 7.50000E-01 3.50000E-01 3.00000E-01
 -1        61 1.00000E+00 3.25000E-01 0.00000E+00
 -1        62 1.00000E+00 3.25000E-01 3.00000E-01
 -1        63 1.00000E+00 3.50000E-01 1.50000E-01
 -1        64 8.75000E-01 3.50000E-01 0.00000E+00
 -1        65 8.75000E-01 3.50000E-01 3.00000E-01
 -1        66 7.50000E-01 3.25000E-01 0.00000E+00
 -1        67 7.50000E-01 3.25000E-01 3.00000E-01
 -1        68 7.50000E-01 3.50000E-01 1.50000E-01
 -1        69 2.50000E-01 6.50000E-01 0.00000E+00
 -1        70 2.50000E-01 6.50000E-01 3.00000E-01
 -1        71 0.00000E+00 6.50000E-01 0.00000E+00
 -1        72 0.00000E+00 6.50000E-01 3.00000E-01
 -1        73 2.50000E-01 5.00000E-01 0.00000E+00
 -1        74 2.50000E-01 5.00000E-01 3.00000E-01
 -1        75 2.50000E-01 6.50000E-01 1.50000E-01
 -1        76 1.25000E-01 6.50000E-01 0.00000E+00
 -1        77 1.25000E-01 6.50000E-01 3.00000E-01
 -1        78 0.00000E+00 5.00000E-01 0.00000E+00
 -1        79 0.00000E+00 5.00000E-01 3.00000E-01
 -1        80 0.00000E+00 6.50000E-01 1.50000E-01
 -1        81 7.50000E-01 6.50000E-01 0.00000E+00
 -1        82 7.50000E-01 6.50000E-01 3.00000E-01
 -1        83 5.00000E-01 6.50000E-01 0.00000E+00
 -1        84 5.00000E-01 3.50000E-01 0.00000E+00
 -1        85 5.00000E-01 3.50000E-01 3.00000E-01
 -1        86 5.00000E-01 6.50000E-01 3.00000E-01
 -1        87 7.50000E-01 5.00000E-01 0.00000E+00
 -1        88 7.50000E-01 5.00000E-01 3.00000E-01
 -1        89 7.50000E-01 6.50000E-01 1.50000E-01
 -1        90 6.25000E-01 6.50000E-01 0.00000E+00
 -1        91 6.25000E-01 3.50000E-01 0.00000E+00
 -1        92 6.25000E-01 3.50000E-01 3.00000E-01
 -1        93 6.25000E-01 6.50000E-01 3.00000E-01
 -1        94 5.00000E-01 5.00000E-01 0.00000E+00
 -1        95 5.00000E-01 3.50000E-01 1.50000E-01
 -1        96 5.00000E-01 5.00000E-01 3.00000E-01
 -1        97 5.00000E-01 6.50000E-01 1.50000E-01
 -1        98 3.75000E-01 6.50000E-01 0.00000E+00
 -1        99 3.75000E-01 3.50000E-01 0.00000E+00
 -1       100 3.75000E-01 3.50000E-01 3.00000E-01
 -1       101 3.75000E-01 6.50000E-01 3.00000E-01
 -1       102 1.00000E+00 6.50000E-01 0.00000E+00
 -1       103 1.00000E+00 6.50000E-01 3.00000E-01
 -1       104 1.00000E+00 5.00000E-01 0.00000E+00
 -1       105 1.00000E+00 5.00000E-01 3.00000E-01
 -1       106 1.00000E+00 6.50000E-01 1.50000E-01
 -1       107 8.75000E-01 6.50000E-01 0.00000E+00
 -1       108 8.75000E-01 6.50000E-01 3.00000E-01
 -1       109 2.50000E-01 7.00000E-01 0.00000E+00
 -1       110 2.50000E-01 7.00000E-01 3.00000E-01
 -1       111 0.00000E+00 7.00000E-01 0.00000E+00
 -1       112 0.00000E+00 7.00000E-01 3.00000E-01
 -1       113 2.50000E-01 6.75000E-01 0.00000E+00
 -1       114 2.50000E-01 6.75000E-01 3.00000E-01
 -1       115 2.50000E-01 7.00000E-01 1.50000E-01
 -1       116 1.25000E-01 7.00000E-01 0.00000E+00
 -1       117 1.25000E-01 7.00000E-01 3.00000E-01
 -1       118 0.00000E+00 6.75000E-01 0.00000E+00
 -1       119 0.00000E+00 6.75000E-01 3.00000E-01
 -1       120 0.00000E+00 7.00000E-01 1.50000E-01
 -1       121 1.00000E+00 7.00000E-01 0.00000E+00
 -1       122 1.00000E+00 7.00000E-01 3.00000E-01
 -1       123 7.50000E-01 7.00000E-01 0.00000E+00
 -1       124 7.50000E-01 7.00000E-01 3.00000E-01
 -1       125 1.00000E+00 6.75000E-01 0.00000E+00
 -1       126 1.00000E+00 6.75000E-01 3.00000E-01
 -1       127 1.00000E+00 7.00000E-01 1.50000E-01
 -1       128 8.75000E-01 7.00000E-01 0.00000E+00
 -1       129 8.75000E-01 7.00000E-01 3.00000E-01
 -1       130 7.50000E-01 6.75000E-01 0.00000E+00
 -1       131 7.50000E-01 6.75000E-01 3.00000E-01
 -1       132 7.50000E-01 7.00000E-01 1.50000E-01
 -1       133 2.50000E-01 1.00000E+00 0.00000E+00
 -1       134 2.50000E-01 1.00000E+00 3.00000E-01
 -1       135 0.00000E+00 1.00000E+00 0.00000E+00
 -1       136 0.00000E+00 1.00000E+00 3.00000E-01
 -1       137 2.50000E-01 8.50000E-01 0.00000E+00
 -1       138 2.50000E-01 8.50000E-01 3.00000E-01
 -1       139 2.50000E-01 1.00000E+00 1.50000E-01
 -1       140 1.25000E-01 1.00000E+00 0.00000E+00
 -1       141 1.25000E-01 1.00000E+00 3.00000E-01
 -1       142 0.00000E+00 8.50000E-01 0.00000E+00
 -1       143 0.00000E+00 8.50000E-01 3.00000E-01
 -1       144 0.00000E+00 1.00000E+00 1.50000E-01
 -1       145 7.50000E-01 1.00000E+00 0.00000E+00
 -1       146 7.50000E-01 1.00000E+00 3.00000E-01
 -1       147 7.50000E-01 8.50000E-01 0.00000E+00
 -1       148 7.50000E-01 8.50000E-01 3.00000E-01
 -1       149 7.50000E-01 1.00000E+00 1.50000E-01
 -1       150 5.00000E-01 1.00000E+00 0.00000E+00
 -1       151 5.00000E-01 7.00000E-01 0.00000E+00
 -1       152 5.00000E-01 7.00000E-01 3.00000E-01
 -1       153 5.00000E-01 1.00000E+00 3.00000E-01
 -1       154 1.00000E+00 1.00000E+00 0.00000E+00
 -1       155 1.00000E+00 1.00000E+00 3.00000E-01
 -1       156 1.00000E+00 8.50000E-01 0.00000E+00
 -1       157 1.00000E+00 8.50000E-01 3.00000E-01
 -1       158 1.00000E+00 1.00000E+00 1.50000E-01
 -1       159 8.75000E-01 1.00000E+00 0.00000E+00
 -1       160 8.75000E-01 1.00000E+00 3.00000E-01
 -1       162 5.00000E-01 6.50000E-01 0.00000E+00
 -1       163 5.00000E-01 3.50000E-01 0.00000E+00
 -1       164 5.00000E-01 3.50000E-01 3.00000E-01
 -1       165 5.00000E-01 6.50000E-01 3.00000E-01
 -1       166 5.00000E-01 5.00000E-01 0.00000E+00
 -1       167 5.00000E-01 3.50000E-01 1.50000E-01
 -1       168 5.00000E-01 5.00000E-01 3.00000E-01
 -1       169 5.00000E-01 6.50000E-01 1.50000E-01
 -3
    3C                            14                                     1
 -1         1    4    0    1
 -2         1         2         3         4         5         6         7         8         9        10
 -2        11        12        13        14        15        16        17        18        19        20
 -1         2    4    0    1
 -2        21        22        23        24         1         2         3         4        25        26
 -2        27        28        29        30        31        32         9        10        11        12
 -1         3    4    0    1
 -2        33        34        35        36        21        22        23        24        37        38
 -2        39        40        41        42        43        44        25        26        27        28
 -1         4    4    0    1
 -2        45         1         4        46        47         5         8        48        49        12
 -2        50        51        52        13        16        53        54        20        55        56
 -1         5    4    0    1
 -2        57        33        36        58        59        21        24        60        61        40
 -2        62        63        64        41        44        65        66        28        67        68
 -1         6    4    0    1
 -2        69        45        46        70        71        47        48        72        73        51
 -2        74        75        76        52        53        77        78        56        79        80
 -1         7    4    0    1
 -2        81        59        60        82       162       163       164       165        87        68
 -2        88        89        90        91        92        93       166       167       168       169
 -1         8    4    0    1
 -2        83        84        85        86        69        45        46        70        94        95
 -2        96        97        98        99       100       101        73        51        74        75
 -1         9    4    0    1
 -2       102        57        58       103        81        59        60        82       104        63
 -2       105       106       107        64        65       108        87        68        88        89
 -1        10    4    0    1
 -2       109        69        70       110       111        71        72       112       113        75
 -2       114       115       116        76        77       117       118        80       119       120
 -1        11    4    0    1
 -2       121       102       103       122       123        81        82       124       125       106
 -2       126       127       128       107       108       129       130        89       131       132
 -1        12    4    0    1
 -2       133       109       110       134       135       111       112       136       137       115
 -2       138       139       140       116       117       141       142       120       143       144
 -1        13    4    0    1
 -2       145       123       124       146       133       109       110       134       147       132
 -2       148       149       150       151       152       153       137       115       138       139
 -1        14    4    0    1
 -2       154       121       122       155       145       123       124       146       156       127
 -2       157       158       159       128       129       160       147       132       148       149
 -3
    1PSTEP                         1           1           1          
  100CL  101 1.000000000         168                     0    1           1
 -4  NDTEMP      1    1
 -5  T           1    1    0    0
 -1         1 4.73000E+02
 -1         2 4.73000E+02
 -1         3 4.73000E+02
 -1         4 4.73000E+02
 -1         5 4.73000E+02
 -1         6 4.73000E+02
 -1         7 4.73000E+02
 -1         8 4.73000E+02
 -1         9 4.73000E+02
 -1        10 4.73000E+02
 -1        11 4.73000E+02
 -1        12 4.73000E+02
 -1        13 4.73000E+02
 -1        14 4.73000E+02
 -1        15 4.73000E+02
 -1        16 4.73000E+02
 -1        17 4.73000E+02
 -1        18 4.73000E+02
 -1        19 4.73000E+02
 -1        20 4.73000E+02
 -1        21 4.73000E+02
 -1        22 4.73000E+02
 -1        23 4.73000E+02
 -1        24 4.73000E+02
 -1        25 4.73000E+02
 -1        26 4.73000E+02
 -1        27 4.73000E+02
 -1        28 4.73000E+02
 -1        29 4.73000E+02
 -1        30 4.73000E+02
 -1        31 4.73000E+02
 -1        32 4.73000E+02
 -1        33 4.73000E+02
 -1        34 4.73000E+02
 -1        35 4.73000E+02
 -1        36 4.73000E+02
 -1        37 4.73000E+02
 -1        38 4.73000E+02
 -1        39 4.73000E+02
 -1        40 4.73000E+02
 -1        41 4.73000E+02
 -1        42 4.73000E+02
 -1        43 4.73000E+02
 -1        44 4.73000E+02
 -1        45 4.73000E+02
 -1        46 4.73000E+02
 -1        47 4.73000E+02
 -1        48 4.73000E+02
 -1        49 4.73000E+02
 -1        50 4.73000E+02
 -1        51 4.73000E+02
 -1        52 4.73000E+02
 -1        53 4.73000E+02
 -1        54 4.73000E+02
 -1        55 4.73000E+02
 -1        56 4.73000E+02
 -1        57 4.73000E+02
 -1        58 4.73000E+02
 -1        59 4.73000E+02
 -1        60 4.73000E+02
 -1        61 4.73000E+02
 -1        62 4.73000E+02
 -1        63 4.73000E+02
 -1        64 4.73000E+02
 -1        65 4.73000E+02
 -1        66 4.73000E+02
 -1        67 4.73000E+02
 -1        68 4.73000E+02
 -1        69 4.73000E+02
 -1        70 4.73000E+02
 -1        71 4.73000E+02
 -1        72 4.73000E+02
 -1        73 4.73000E+02
 -1        74 4.73000E+02
 -1        75 4.73000E+02
 -1        76 4.73000E+02
 -1        77 4.73000E+02
 -1        78 4.73000E+02
 -1        79 4.73000E+02
 -1        80 4.73000E+02
 -1        81 4.73000E+02
 -1        82 4.73000E+02
 -1        83 4.73000E+02
 -1        84 4.73000E+02
 -1        85 4.73000E+02
 -1        86 4.73000E+02
 -1        87 4.73000E+02
 -1        88 4.73000E+02
 -1        89 4.73000E+02
 -1        90 4.73000E+02
 -1        91 4.73000E+02
 -1        92 4.73000E+02
 -1        93 4.73000E+02
 -1        94 4.73000E+02
 -1        95 4.73000E+02
 -1        96 4.73000E+02
 -1        97 4.73000E+02
 -1        98 4.73000E+02
 -1        99 4.73000E+02
 -1       100 4.73000E+02
 -1       101 4.73000E+02
 -1       102 4.73000E+02
 -1       103 4.73000E+02
 -1       104 4.73000E+02
 -1       105 4.73000E+02
 -1       106 4.73000E+02
 -1       107 4.73000E+02
 -1       108 4.73000E+02
 -1       109 4.73000E+02
 -1       110 4.73000E+02
 -1       111 4.73000E+02
 -1       112 4.73000E+02
 -1       113 4.73000E+02
 -1       114 4.73000E+02
 -1       115 4.73000E+02
 -1       116 4.73000E+02
 -1       117 4.73000E+02
 -1       118 4.73000E+02
 -1       119 4.73000E+02
 -1       120 4.73000E+02
 -1       121 4.73000E+02
 -1       122 4.73000E+02
 -1       123 4.73000E+02
 -1       124 4.73000E+02
 -1       125 4.73000E+02
 -1       126 4.73000E+02
 -1       127 4.73000E+02
 -1       128 4.73000E+02
 -1       129 4.73000E+02
 -1       130 4.73000E+02
 -1       131 4.73000E+02
 -1       132 4.73000E+02
 -1       133 4.73000E+02
 -1       134 4.73000E+02
 -1       135 4.73000E+02
 -1       136 4.73000E+02
 -1       137 4.73000E+02
 -1       138 4.73000E+02
 -1       139 4.73000E+02
 -1       140 4.73000E+02
 -1       141 4.73000E+02
 -1       142 4.73000E+02
 -1       143 4.73000E+02
 -1       144 4.73000E+02
 -1       145 4.73000E+02
 -1       146 4.73000E+02
 -1       147 4.73000E+02
 -1       148 4.73000E+02
 -1       149 4.73000E+02
 -1       150 4.73000E+02
 -1       151 4.73000E+02
 -1       152 4.73000E+02
 -1       153 4.73000E+02
 -1       154 4.73000E+02
 -1       155 4.73000E+02
 -1       156 4.73000E+02
 -1       157 4.73000E+02
 -1       158 4.73000E+02
 -1       159 4.73000E+02
 -1       160 4.73000E+02
 -1       162 4.73000E+02
 -1       163 4.73000E+02
 -1       164 4.73000E+02
 -1       165 4.73000E+02
 -1       166 4.73000E+02
 -1       167 4.73000E+02
 -1       168 4.73000E+02
 -1       169 4.73000E+02
 -3
 9999
