    1C
    1UUSER                                                              
    1UDATE              15.december.2018                                
    1UTIME              15:54:11                                        
    1UHOST                                                              
    1UPGM               CalculiX                                        
    1UVERSION           Version 2.15                             
    1UCOMPILETIME       Sa 15. Dez 14:32:01 CET 2018                    
    1UDIR                                                               
    1UDBN                                                               
    1UMAT    1EL                                                        
    2C                            16                                     1
 -1        10 0.00000E+00 0.00000E+00-5.00000E-02
 -1        12 0.00000E+00 0.00000E+00 5.00000E-02
 -1        13 1.00000E+00 0.00000E+00-5.00000E-02
 -1        15 1.00000E+00 0.00000E+00 5.00000E-02
 -1        16 2.00000E+00 0.00000E+00-5.00000E-02
 -1        18 2.00000E+00 0.00000E+00 5.00000E-02
 -1        19 0.00000E+00 1.00000E+00-5.00000E-02
 -1        21 0.00000E+00 1.00000E+00 5.00000E-02
 -1        22 1.00000E+00 1.00000E+00-5.00000E-02
 -1        24 1.00000E+00 1.00000E+00 5.00000E-02
 -1        25 2.00000E+00 1.00000E+00-5.00000E-02
 -1        27 2.00000E+00 1.00000E+00 5.00000E-02
 -1        28 1.00000E+00 0.00000E+00-5.00000E-02
 -1        30 1.00000E+00 0.00000E+00 5.00000E-02
 -1        31 1.00000E+00 1.00000E+00-5.00000E-02
 -1        33 1.00000E+00 1.00000E+00 5.00000E-02
 -3
    3C                             2                                     1
 -1         1    1    0    1
 -2        10        28        31        19        12        30        33        21
 -1         2    1    0    1
 -2        13        16        25        22        15        18        27        24
 -3
    1PSTEP                         1           1           1          
  100CL  101 1.000000000          16                     0    1           1
 -4  DISP        4    1
 -5  D1          1    2    1    0
 -5  D2          1    2    2    0
 -5  D3          1    2    3    0
 -5  ALL         1    2    0    0    1ALL
 -1        10 0.00000E+00 0.00000E+00 0.00000E+00
 -1        12 0.00000E+00 0.00000E+00 0.00000E+00
 -1        13 4.05933E-04-1.21780E-04 0.00000E+00
 -1        15 4.05933E-04-1.21780E-04 0.00000E+00
 -1        16 0.00000E+00 0.00000E+00 0.00000E+00
 -1        18 0.00000E+00 0.00000E+00 0.00000E+00
 -1        19 0.00000E+00 0.00000E+00 0.00000E+00
 -1        21 0.00000E+00 0.00000E+00 0.00000E+00
 -1        22 4.05933E-04 1.21780E-04 0.00000E+00
 -1        24 4.05933E-04 1.21780E-04 0.00000E+00
 -1        25 0.00000E+00 0.00000E+00 0.00000E+00
 -1        27 0.00000E+00 0.00000E+00 0.00000E+00
 -1        28-4.05933E-04-1.21780E-04 0.00000E+00
 -1        30-4.05933E-04-1.21780E-04 0.00000E+00
 -1        31-4.05933E-04 1.21780E-04 0.00000E+00
 -1        33-4.05933E-04 1.21780E-04 0.00000E+00
 -3
    1PSTEP                         2           1           1          
  100CL  101 1.000000000          16                     0    1           1
 -4  STRESS      6    1
 -5  SXX         1    4    1    1
 -5  SYY         1    4    2    2
 -5  SZZ         1    4    3    3
 -5  SXY         1    4    1    2
 -5  SYZ         1    4    2    3
 -5  SZX         1    4    3    1
 -1        10-1.14750E+02-4.91795E+01-4.91789E+01-9.83600E+00 1.02129E-15 4.67187E-15
 -1        12-1.14750E+02-4.91795E+01-4.91789E+01-9.83600E+00 1.02129E-15 4.67187E-15
 -1        13-8.52420E+01 1.96725E+01-1.96708E+01 9.83600E+00-1.69292E-14 7.44621E-14
 -1        15-8.52420E+01 1.96725E+01-1.96708E+01 9.83600E+00-1.12755E-14 7.43260E-14
 -1        16-1.14750E+02-4.91795E+01-4.91789E+01 9.83600E+00 1.39510E-15-5.14759E-14
 -1        18-1.14750E+02-4.91795E+01-4.91789E+01 9.83600E+00 4.80596E-15-5.09680E-14
 -1        19-1.14750E+02-4.91795E+01-4.91789E+01 9.83600E+00-2.73657E-16-1.25155E-15
 -1        21-1.14750E+02-4.91795E+01-4.91789E+01 9.83600E+00-2.73657E-16-1.25155E-15
 -1        22-8.52420E+01 1.96725E+01-1.96708E+01-9.83600E+00 1.48806E-15-3.76963E-14
 -1        24-8.52420E+01 1.96725E+01-1.96708E+01-9.83600E+00-2.68403E-17-3.06207E-14
 -1        25-1.14750E+02-4.91795E+01-4.91789E+01-9.83600E+00 1.10018E-14 8.00137E-14
 -1        27-1.14750E+02-4.91795E+01-4.91789E+01-9.83600E+00 1.00879E-14 5.36069E-14
 -1        28-8.52420E+01 1.96725E+01-1.96708E+01-9.83600E+00-2.73657E-16-3.15866E-14
 -1        30-8.52420E+01 1.96725E+01-1.96708E+01-9.83600E+00-2.73657E-16-3.15866E-14
 -1        31-8.52420E+01 1.96725E+01-1.96708E+01 9.83600E+00 7.33181E-17 8.46374E-15
 -1        33-8.52420E+01 1.96725E+01-1.96708E+01 9.83600E+00 7.33181E-17 8.46374E-15
 -3
 9999
