    1C
    1UUSER                                                              
    1UDATE              15.december.2018                                
    1UTIME              15:54:11                                        
    1UHOST                                                              
    1UPGM               CalculiX                                        
    1UVERSION           Version 2.15                             
    1UCOMPILETIME       Sa 15. Dez 14:32:01 CET 2018                    
    1UDIR                                                               
    1UDBN                                                               
    1UMAT    1GAS                                                       
    2C                            13                                     1
 -1         1 5.00000E-01 0.00000E+00 0.00000E+00
 -1         2 1.00000E+00 0.00000E+00 0.00000E+00
 -1         3 1.50000E+00 0.00000E+00 0.00000E+00
 -1         4 2.00000E+00 0.00000E+00 0.00000E+00
 -1         5 2.50000E+00 0.00000E+00 0.00000E+00
 -1         6 3.00000E+00 0.00000E+00 0.00000E+00
 -1         7 3.50000E+00 0.00000E+00 0.00000E+00
 -1         8 4.00000E+00 0.00000E+00 0.00000E+00
 -1         9 4.50000E+00 0.00000E+00 0.00000E+00
 -1        10 5.00000E+00 0.00000E+00 0.00000E+00
 -1        11 5.50000E+00 0.00000E+00 0.00000E+00
 -1        12 6.00000E+00 0.00000E+00 0.00000E+00
 -1        13 6.50000E+00 0.00000E+00 0.00000E+00
 -3
    3C                             7                                     1
 -1         1   11    0    1
 -2         1         2
 -1         2   12    0    1
 -2         2         4         3
 -1         3   12    0    1
 -2         4         6         5
 -1         4   12    0    1
 -2         6         8         7
 -1         5   12    0    1
 -2         8        10         9
 -1         6   12    0    1
 -2        10        12        11
 -1         7   11    0    1
 -2        12        13
 -3
    1PSTEP                         1           1           1          
  100CL  101 1.000000000          13                     0    1           1
 -4  TOTEMP      1    1
 -5  TT          1    1    0    0
 -1         1 2.93000E+02
 -1         2 2.93000E+02
 -1         3 2.93000E+02
 -1         4 2.93000E+02
 -1         5 2.93000E+02
 -1         6 2.93000E+02
 -1         7 7.45500E+02
 -1         8 1.19800E+03
 -1         9 1.19800E+03
 -1        10 1.19800E+03
 -1        11 1.19800E+03
 -1        12 1.19800E+03
 -1        13 1.19800E+03
 -3
    1PSTEP                         2           1           1          
  100CL  101 1.000000000          13                     0    1           1
 -4  MAFLOW      1    1
 -5  MF          1    1    0    0
 -1         1 4.65813E-01
 -1         2 4.65813E-01
 -1         3 4.65813E-01
 -1         4 4.65813E-01
 -1         5 4.65813E-01
 -1         6 4.65813E-01
 -1         7 4.65813E-01
 -1         8 4.65813E-01
 -1         9 4.65813E-01
 -1        10 4.65813E-01
 -1        11 4.65813E-01
 -1        12 4.65813E-01
 -1        13 4.65813E-01
 -3
    1PSTEP                         3           1           1          
  100CL  101 1.000000000          13                     0    1           1
 -4  TOPRES      1    1
 -5  PT          1    1    0    0
 -1         1 1.00000E+05
 -1         2 1.00000E+05
 -1         3 9.99954E+04
 -1         4 9.99909E+04
 -1         5 1.81525E+05
 -1         6 2.63060E+05
 -1         7 2.30167E+05
 -1         8 1.97274E+05
 -1         9 1.80778E+05
 -1        10 1.64282E+05
 -1        11 1.32141E+05
 -1        12 1.00000E+05
 -1        13 1.00000E+05
 -3
 9999
