
 displacements (vx,vy,vz) for set NALL and time  0.1000000E+01

         1  0.000000E+00  0.000000E+00  0.000000E+00
         2  0.000000E+00  0.000000E+00  0.000000E+00
         3  0.000000E+00  0.000000E+00  0.000000E+00
         4  0.000000E+00  0.000000E+00  0.000000E+00
         5 -6.475441E-05 -6.475441E-05  2.325591E-04
         6  6.475441E-05 -6.475441E-05  2.325591E-04
         7  6.475441E-05  6.475441E-05  2.325591E-04
         8 -6.475441E-05  6.475441E-05  2.325591E-04
         9  0.000000E+00  0.000000E+00  0.000000E+00
        10  0.000000E+00  0.000000E+00  0.000000E+00
        11  0.000000E+00  0.000000E+00  0.000000E+00
        12  0.000000E+00  0.000000E+00  0.000000E+00
        13  0.000000E+00  0.000000E+00  0.000000E+00
        14  0.000000E+00  0.000000E+00  0.000000E+00
        15  0.000000E+00  0.000000E+00  0.000000E+00
        16  0.000000E+00  0.000000E+00  0.000000E+00
        17  0.000000E+00  0.000000E+00  0.000000E+00
        18  0.000000E+00  0.000000E+00  0.000000E+00
        19  0.000000E+00  0.000000E+00  0.000000E+00
        20  0.000000E+00  0.000000E+00  0.000000E+00
        21 -3.540165E-05 -6.454118E-05  2.083543E-04
        22  3.299811E-16 -6.618260E-05  2.051107E-04
        23  3.540165E-05 -6.454118E-05  2.083543E-04
        24  6.454118E-05 -3.540165E-05  2.083543E-04
        25  6.618260E-05 -1.532732E-16  2.051107E-04
        26  6.454118E-05  3.540165E-05  2.083543E-04
        27  3.540165E-05  6.454118E-05  2.083543E-04
        28  3.204779E-16  6.618260E-05  2.051107E-04
        29 -3.540165E-05  6.454118E-05  2.083543E-04
        30 -6.454118E-05  3.540165E-05  2.083543E-04
        31 -6.618260E-05 -1.627887E-16  2.051107E-04
        32 -6.454118E-05 -3.540165E-05  2.083543E-04
        33 -6.514814E-10  6.514814E-10 -3.994168E-09
        34  4.487991E-09 -4.487991E-09 -3.493683E-09
        35 -1.344497E-09  1.344497E-09  1.194842E-08
        36  1.016875E-08 -1.016875E-08  2.228837E-08
        37 -1.510938E-08  1.510938E-08 -4.805194E-08
        38  6.211315E-08 -6.211315E-08 -5.923389E-08
        39 -9.978261E-09  9.978261E-09  1.404202E-07
        40  1.718077E-07 -1.718077E-07  3.289097E-07
        41 -1.963850E-07  1.963850E-07 -6.476229E-07
        42  1.258921E-06 -1.258921E-06 -6.575508E-07
        43 -3.422524E-07  3.422524E-07  1.063103E-06
        44  6.563332E-06 -6.563332E-06  3.758267E-06
        45 -7.338340E-06  7.338340E-06 -1.311706E-05
        46  4.365584E-05 -4.365584E-05 -5.423157E-05
        47  1.077509E-04 -1.077509E-04  8.918965E-05
        48 -1.077509E-04 -1.077509E-04  8.918965E-05
        49 -4.365584E-05 -4.365584E-05 -5.423157E-05
        50  7.338340E-06  7.338340E-06 -1.311706E-05
        51 -6.563332E-06 -6.563332E-06  3.758267E-06
        52  3.422524E-07  3.422524E-07  1.063103E-06
        53 -1.258921E-06 -1.258921E-06 -6.575508E-07
        54  1.963850E-07  1.963850E-07 -6.476229E-07
        55 -1.718077E-07 -1.718077E-07  3.289097E-07
        56  9.978261E-09  9.978261E-09  1.404202E-07
        57 -6.211315E-08 -6.211315E-08 -5.923389E-08
        58  1.510938E-08  1.510938E-08 -4.805194E-08
        59 -1.016875E-08 -1.016875E-08  2.228837E-08
        60  1.344497E-09  1.344497E-09  1.194842E-08
        61 -4.487991E-09 -4.487991E-09 -3.493683E-09
        62  6.514814E-10  6.514814E-10 -3.994168E-09
        63 -6.514814E-10 -6.514814E-10 -3.994168E-09
        64  4.487991E-09  4.487991E-09 -3.493683E-09
        65 -1.344497E-09 -1.344497E-09  1.194842E-08
        66  1.016875E-08  1.016875E-08  2.228837E-08
        67 -1.510938E-08 -1.510938E-08 -4.805194E-08
        68  6.211315E-08  6.211315E-08 -5.923389E-08
        69 -9.978261E-09 -9.978261E-09  1.404202E-07
        70  1.718077E-07  1.718077E-07  3.289097E-07
        71 -1.963850E-07 -1.963850E-07 -6.476229E-07
        72  1.258921E-06  1.258921E-06 -6.575508E-07
        73 -3.422524E-07 -3.422524E-07  1.063103E-06
        74  6.563332E-06  6.563332E-06  3.758267E-06
        75 -7.338340E-06 -7.338340E-06 -1.311706E-05
        76  4.365584E-05  4.365584E-05 -5.423157E-05
        77  1.077509E-04  1.077509E-04  8.918965E-05
        78  6.514814E-10 -6.514814E-10 -3.994168E-09
        79 -4.487991E-09  4.487991E-09 -3.493683E-09
        80  1.344497E-09 -1.344497E-09  1.194842E-08
        81 -1.016875E-08  1.016875E-08  2.228837E-08
        82  1.510938E-08 -1.510938E-08 -4.805194E-08
        83 -6.211315E-08  6.211315E-08 -5.923389E-08
        84  9.978261E-09 -9.978261E-09  1.404202E-07
        85 -1.718077E-07  1.718077E-07  3.289097E-07
        86  1.963850E-07 -1.963850E-07 -6.476229E-07
        87 -1.258921E-06  1.258921E-06 -6.575508E-07
        88  3.422524E-07 -3.422524E-07  1.063103E-06
        89 -6.563332E-06  6.563332E-06  3.758267E-06
        90  7.338340E-06 -7.338340E-06 -1.311706E-05
        91 -4.365584E-05  4.365584E-05 -5.423157E-05
        92 -1.077509E-04  1.077509E-04  8.918965E-05
        93  0.000000E+00  0.000000E+00  0.000000E+00
        94  0.000000E+00  0.000000E+00  0.000000E+00
        95  0.000000E+00  0.000000E+00  0.000000E+00
        96  0.000000E+00  0.000000E+00  0.000000E+00
        97  0.000000E+00  0.000000E+00  0.000000E+00
        98  3.274122E-16 -3.479321E-05  1.798609E-04
        99 -3.479321E-05 -1.604929E-16  1.798609E-04
       100  3.249173E-16 -1.580674E-16  1.772265E-04
       101  3.479321E-05 -1.559693E-16  1.798609E-04
       102  3.226391E-16  3.479321E-05  1.798609E-04
       103  1.661857E-18  3.166304E-10 -2.355195E-09
       104 -4.102257E-09 -8.355087E-10 -1.486430E-09
       105  7.842545E-18  1.934674E-09 -8.350332E-09
       106  4.102257E-09 -8.355087E-10 -1.486430E-09
       107  1.715381E-17 -5.473140E-09  8.845048E-09
       108  1.361479E-09 -8.184791E-10  4.216760E-09
       109  2.993664E-17  1.162310E-08  2.031877E-08
       110 -1.361479E-09 -8.184791E-10  4.216760E-09
       111  4.545697E-17  4.609198E-09 -2.385061E-08
       112 -5.263428E-08 -1.965693E-08 -1.837014E-08
       113  6.370899E-17  1.400080E-08 -1.046609E-07
       114  5.263428E-08 -1.965693E-08 -1.837014E-08
       115  8.425960E-17 -6.520232E-08  1.045270E-07
       116 -2.173300E-08 -1.066086E-07  7.794243E-08
       117  1.069142E-16 -1.504692E-08  2.757402E-07
       118  2.173300E-08 -1.066086E-07  7.794243E-08
       119  1.313670E-16  1.635859E-07 -3.604541E-07
       120 -8.632020E-07 -1.092043E-06 -1.774747E-07
       121  1.573154E-16 -9.925483E-07 -1.414379E-06
       122  8.632020E-07 -1.092043E-06 -1.774747E-07
       123  1.845487E-16  8.748889E-08  1.301792E-06
       124 -2.605678E-06 -7.427544E-06  5.288598E-08
       125  2.126810E-16 -8.061299E-06  2.015141E-06
       126  2.605678E-06 -7.427544E-06  5.288598E-08
       127  2.415559E-16  1.095710E-05 -2.462965E-06
       128 -2.164392E-05 -4.355432E-05 -2.728100E-05
       129  2.707772E-16 -4.318762E-05 -2.312714E-05
       130  2.164392E-05 -4.355432E-05 -2.728100E-05
       131  3.001580E-16 -1.127771E-04  9.610930E-05
       132 -3.166304E-10 -3.536527E-19 -2.355195E-09
       133  8.355087E-10 -4.102257E-09 -1.486430E-09
       134 -1.934674E-09 -2.785259E-18 -8.350332E-09
       135  8.355087E-10  4.102257E-09 -1.486430E-09
       136  5.473140E-09 -6.666673E-18  8.845048E-09
       137  8.184791E-10  1.361479E-09  4.216760E-09
       138 -1.162310E-08 -1.219083E-17  2.031877E-08
       139  8.184791E-10 -1.361479E-09  4.216760E-09
       140 -4.609198E-09 -1.903213E-17 -2.385061E-08
       141  1.965693E-08 -5.263428E-08 -1.837014E-08
       142 -1.400080E-08 -2.718953E-17 -1.046609E-07
       143  1.965693E-08  5.263428E-08 -1.837014E-08
       144  6.520232E-08 -3.647641E-17  1.045270E-07
       145  1.066086E-07 -2.173300E-08  7.794243E-08
       146  1.504692E-08 -4.681088E-17  2.757402E-07
       147  1.066086E-07  2.173300E-08  7.794243E-08
       148 -1.635859E-07 -5.806679E-17 -3.604541E-07
       149  1.092043E-06 -8.632020E-07 -1.774747E-07
       150  9.925483E-07 -7.011297E-17 -1.414379E-06
       151  1.092043E-06  8.632020E-07 -1.774747E-07
       152 -8.748889E-08 -8.289076E-17  1.301792E-06
       153  7.427544E-06 -2.605678E-06  5.288598E-08
       154  8.061299E-06 -9.618342E-17  2.015141E-06
       155  7.427544E-06  2.605678E-06  5.288598E-08
       156 -1.095710E-05 -1.100199E-16 -2.462965E-06
       157  4.355432E-05 -2.164392E-05 -2.728100E-05
       158  4.318762E-05 -1.242154E-16 -2.312714E-05
       159  4.355432E-05  2.164392E-05 -2.728100E-05
       160  1.127771E-04 -1.386472E-16  9.610930E-05
       161  1.107713E-18 -3.166304E-10 -2.355194E-09
       162  4.102257E-09  8.355087E-10 -1.486430E-09
       163  6.703459E-18 -1.934674E-09 -8.350332E-09
       164 -4.102257E-09  8.355087E-10 -1.486430E-09
       165  1.540053E-17  5.473140E-09  8.845048E-09
       166 -1.361479E-09  8.184791E-10  4.216760E-09
       167  2.757821E-17 -1.162310E-08  2.031877E-08
       168  1.361479E-09  8.184791E-10  4.216760E-09
       169  4.249611E-17 -4.609198E-09 -2.385061E-08
       170  5.263428E-08  1.965693E-08 -1.837014E-08
       171  6.015249E-17 -1.400080E-08 -1.046609E-07
       172 -5.263428E-08  1.965693E-08 -1.837014E-08
       173  8.009122E-17  6.520232E-08  1.045270E-07
       174  2.173300E-08  1.066086E-07  7.794243E-08
       175  1.021575E-16  1.504692E-08  2.757402E-07
       176 -2.173300E-08  1.066086E-07  7.794243E-08
       177  1.259855E-16 -1.635859E-07 -3.604541E-07
       178  8.632020E-07  1.092043E-06 -1.774747E-07
       179  1.513595E-16  9.925483E-07 -1.414379E-06
       180 -8.632020E-07  1.092043E-06 -1.774747E-07
       181  1.779488E-16 -8.748889E-08  1.301792E-06
       182  2.605678E-06  7.427544E-06  5.288598E-08
       183  2.055355E-16  8.061299E-06  2.015141E-06
       184 -2.605678E-06  7.427544E-06  5.288598E-08
       185  2.337517E-16 -1.095710E-05 -2.462965E-06
       186  2.164392E-05  4.355432E-05 -2.728100E-05
       187  2.623271E-16  4.318762E-05 -2.312714E-05
       188 -2.164392E-05  4.355432E-05 -2.728100E-05
       189  2.912675E-16  1.127771E-04  9.610930E-05
       190  3.166304E-10 -9.075922E-19 -2.355194E-09
       191 -8.355087E-10  4.102257E-09 -1.486430E-09
       192  1.934674E-09 -3.925625E-18 -8.350332E-09
       193 -8.355087E-10 -4.102257E-09 -1.486430E-09
       194 -5.473140E-09 -8.418882E-18  8.845048E-09
       195 -8.184791E-10 -1.361479E-09  4.216760E-09
       196  1.162310E-08 -1.455318E-17  2.031877E-08
       197 -8.184791E-10  1.361479E-09  4.216760E-09
       198  4.609198E-09 -2.199037E-17 -2.385061E-08
       199 -1.965693E-08  5.263428E-08 -1.837014E-08
       200  1.400080E-08 -3.075525E-17 -1.046609E-07
       201 -1.965693E-08 -5.263428E-08 -1.837014E-08
       202 -6.520232E-08 -4.063796E-17  1.045270E-07
       203 -1.066086E-07  2.173300E-08  7.794243E-08
       204 -1.504692E-08 -5.159088E-17  2.757402E-07
       205 -1.066086E-07 -2.173300E-08  7.794243E-08
       206  1.635859E-07 -6.343503E-17 -3.604541E-07
       207 -1.092043E-06  8.632020E-07 -1.774747E-07
       208 -9.925483E-07 -7.611660E-17 -1.414379E-06
       209 -1.092043E-06 -8.632020E-07 -1.774747E-07
       210  8.748889E-08 -8.945199E-17  1.301792E-06
       211 -7.427544E-06  2.605678E-06  5.288598E-08
       212 -8.061299E-06 -1.033922E-16  2.015141E-06
       213 -7.427544E-06 -2.605678E-06  5.288598E-08
       214  1.095710E-05 -1.177433E-16 -2.462965E-06
       215 -4.355432E-05  2.164392E-05 -2.728100E-05
       216 -4.318762E-05 -1.326631E-16 -2.312714E-05
       217 -4.355432E-05 -2.164392E-05 -2.728100E-05
       218 -1.127771E-04 -1.473616E-16  9.610930E-05
       219  1.895260E-18 -8.684566E-19 -3.314946E-09
       220  7.960991E-18 -2.113791E-11 -1.068195E-09
       221 -2.113790E-11 -3.829585E-18 -1.068195E-09
       222  7.745662E-18 -3.577360E-18 -5.529045E-09
       223  2.113792E-11 -3.259107E-18 -1.068195E-09
       224  7.391191E-18  2.113791E-11 -1.068195E-09
       225  1.675481E-17 -7.768629E-18  4.381975E-09
       226  2.965659E-17  9.546795E-09  3.589104E-09
       227  9.546795E-09 -1.411081E-17  3.589104E-09
       228  2.917936E-17 -1.357399E-17  3.200298E-08
       229 -9.546795E-09 -1.292983E-17  3.589104E-09
       230  2.847746E-17 -9.546795E-09  3.589104E-09
       231  4.437580E-17 -2.070414E-17 -2.418218E-08
       232  6.308300E-17 -6.916857E-09 -2.265206E-08
       233 -6.916857E-09 -2.999351E-17 -2.265206E-08
       234  6.227519E-17 -2.914285E-17 -1.019355E-07
       235  6.916857E-09 -2.821052E-17 -2.265206E-08
       236  6.130485E-17  6.916857E-09 -2.265206E-08
       237  8.249001E-17 -3.871327E-17  7.331750E-08
       238  1.059232E-16  3.417122E-08 -4.323313E-08
       239  3.417122E-08 -5.049941E-17 -4.323313E-08
       240  1.047983E-16 -4.933874E-17  1.966704E-07
       241 -3.417122E-08 -4.811002E-17 -4.323313E-08
       242  1.035444E-16 -3.417122E-08 -4.323313E-08
       243  1.289089E-16 -6.087333E-17 -1.601456E-07
       244  1.559601E-16 -6.800137E-07 -8.501341E-07
       245 -6.800137E-07 -7.469782E-17 -8.501341E-07
       246  1.545128E-16 -7.323209E-17 -2.364206E-06
       247  6.800137E-07 -7.169507E-17 -8.501341E-07
       248  1.529825E-16  6.800137E-07 -8.501341E-07
       249  1.814034E-16 -8.624757E-17  2.212205E-06
       250  2.109467E-16 -3.512314E-06 -2.812959E-06
       251 -3.512314E-06 -1.016699E-16 -2.812959E-06
       252  2.091593E-16 -9.989435E-17 -9.560109E-07
       253  3.512314E-06 -9.807820E-17 -2.812959E-06
       254  2.073723E-16  3.512314E-06 -2.812959E-06
       255  2.378047E-16 -1.139280E-16  7.676398E-06
       256  2.686957E-16 -2.161021E-05  6.207166E-06
       257 -2.161021E-05 -1.304898E-16  6.207166E-06
       258  2.665181E-16 -1.283983E-16  1.099844E-05
       259  2.161021E-05 -1.262597E-16  6.207166E-06
       260  2.645101E-16  2.161021E-05  6.207166E-06
       261  2.957945E-16 -1.430514E-16  1.021432E-04

 stresses (elem, integ.pnt.,sxx,syy,szz,sxy,sxz,syz) for set EALL and time  0.1000000E+01

         1   1 -1.424584E-03 -1.424584E-03 -1.016183E-03 -1.621017E-04  6.322427E-04  6.322427E-04
         1   2 -2.229081E-05 -2.833358E-04  2.287468E-04 -1.431357E-04 -2.138093E-04  4.107116E-04
         1   3 -2.833358E-04 -2.229081E-05  2.287468E-04 -1.431357E-04  4.107116E-04 -2.138093E-04
         1   4  4.327282E-04  4.327282E-04  5.586899E-04 -4.385198E-05 -5.184849E-04 -5.184849E-04
         1   5 -1.448565E-03 -1.448565E-03 -2.393075E-04  1.040774E-03  8.091865E-04  8.091865E-04
         1   6  1.247253E-03 -9.317500E-04 -3.094879E-04  5.091714E-04 -1.616058E-03  1.782027E-03
         1   7 -9.317500E-04  1.247253E-03 -3.094879E-04  5.091714E-04  1.782027E-03 -1.616058E-03
         1   8  1.197053E-03  1.197053E-03  8.582833E-04  2.773185E-04 -1.524457E-03 -1.524457E-03
         2   1 -2.229081E-05 -2.833358E-04  2.287468E-04  1.431357E-04  2.138093E-04  4.107116E-04
         2   2 -1.424584E-03 -1.424584E-03 -1.016183E-03  1.621017E-04 -6.322427E-04  6.322427E-04
         2   3  4.327282E-04  4.327282E-04  5.586899E-04  4.385198E-05  5.184849E-04 -5.184849E-04
         2   4 -2.833358E-04 -2.229081E-05  2.287468E-04  1.431357E-04 -4.107116E-04 -2.138093E-04
         2   5  1.247253E-03 -9.317500E-04 -3.094879E-04 -5.091714E-04  1.616058E-03  1.782027E-03
         2   6 -1.448565E-03 -1.448565E-03 -2.393075E-04 -1.040774E-03 -8.091865E-04  8.091865E-04
         2   7  1.197053E-03  1.197053E-03  8.582833E-04 -2.773185E-04  1.524457E-03 -1.524457E-03
         2   8 -9.317500E-04  1.247253E-03 -3.094879E-04 -5.091714E-04 -1.782027E-03 -1.616058E-03
         3   1 -2.833358E-04 -2.229081E-05  2.287468E-04  1.431357E-04  4.107116E-04  2.138093E-04
         3   2  4.327282E-04  4.327282E-04  5.586899E-04  4.385198E-05 -5.184849E-04  5.184849E-04
         3   3 -1.424584E-03 -1.424584E-03 -1.016183E-03  1.621017E-04  6.322427E-04 -6.322427E-04
         3   4 -2.229081E-05 -2.833358E-04  2.287468E-04  1.431357E-04 -2.138093E-04 -4.107116E-04
         3   5 -9.317500E-04  1.247253E-03 -3.094879E-04 -5.091714E-04  1.782027E-03  1.616058E-03
         3   6  1.197053E-03  1.197053E-03  8.582833E-04 -2.773185E-04 -1.524457E-03  1.524457E-03
         3   7 -1.448565E-03 -1.448565E-03 -2.393075E-04 -1.040774E-03  8.091865E-04 -8.091865E-04
         3   8  1.247253E-03 -9.317500E-04 -3.094879E-04 -5.091714E-04 -1.616058E-03 -1.782027E-03
         4   1  4.327282E-04  4.327282E-04  5.586899E-04 -4.385198E-05  5.184849E-04  5.184849E-04
         4   2 -2.833358E-04 -2.229081E-05  2.287468E-04 -1.431357E-04 -4.107116E-04  2.138093E-04
         4   3 -2.229081E-05 -2.833358E-04  2.287468E-04 -1.431357E-04  2.138093E-04 -4.107116E-04
         4   4 -1.424584E-03 -1.424584E-03 -1.016183E-03 -1.621017E-04 -6.322427E-04 -6.322427E-04
         4   5  1.197053E-03  1.197053E-03  8.582833E-04  2.773185E-04  1.524457E-03  1.524457E-03
         4   6 -9.317500E-04  1.247253E-03 -3.094879E-04  5.091714E-04 -1.782027E-03  1.616058E-03
         4   7  1.247253E-03 -9.317500E-04 -3.094879E-04  5.091714E-04  1.616058E-03 -1.782027E-03
         4   8 -1.448565E-03 -1.448565E-03 -2.393075E-04  1.040774E-03 -8.091865E-04 -8.091865E-04
         5   1  6.861926E-04  6.861926E-04  7.426981E-04 -1.053496E-03  1.243308E-04  1.243308E-04
         5   2  1.136039E-03  1.864406E-03  5.500224E-04 -6.714961E-04 -7.000374E-05 -1.118561E-03
         5   3  1.864406E-03  1.136039E-03  5.500224E-04 -6.714961E-04 -1.118561E-03 -7.000374E-05
         5   4  1.190303E-03  1.190303E-03 -1.842743E-03 -2.711548E-04 -4.141764E-04 -4.141764E-04
         5   5  9.366132E-03  9.366132E-03  3.870167E-03  8.725089E-05 -6.120257E-03 -6.120257E-03
         5   6 -2.751555E-03  1.933659E-03 -1.426306E-03  5.637329E-04  4.502196E-03 -4.347517E-03
         5   7  1.933659E-03 -2.751555E-03 -1.426306E-03  5.637329E-04 -4.347517E-03  4.502196E-03
         5   8 -4.612557E-03 -4.612557E-03 -1.017554E-03  7.030205E-05  6.292849E-03  6.292849E-03
         6   1  1.136039E-03  1.864406E-03  5.500224E-04  6.714961E-04  7.000374E-05 -1.118561E-03
         6   2  6.861926E-04  6.861926E-04  7.426981E-04  1.053496E-03 -1.243308E-04  1.243308E-04
         6   3  1.190303E-03  1.190303E-03 -1.842743E-03  2.711548E-04  4.141764E-04 -4.141764E-04
         6   4  1.864406E-03  1.136039E-03  5.500224E-04  6.714961E-04  1.118561E-03 -7.000374E-05
         6   5 -2.751555E-03  1.933659E-03 -1.426306E-03 -5.637329E-04 -4.502196E-03 -4.347517E-03
         6   6  9.366132E-03  9.366132E-03  3.870167E-03 -8.725089E-05  6.120257E-03 -6.120257E-03
         6   7 -4.612557E-03 -4.612557E-03 -1.017554E-03 -7.030205E-05 -6.292849E-03  6.292849E-03
         6   8  1.933659E-03 -2.751555E-03 -1.426306E-03 -5.637329E-04  4.347517E-03  4.502196E-03
         7   1  1.864406E-03  1.136039E-03  5.500224E-04  6.714961E-04 -1.118561E-03  7.000374E-05
         7   2  1.190303E-03  1.190303E-03 -1.842743E-03  2.711548E-04 -4.141764E-04  4.141764E-04
         7   3  6.861926E-04  6.861926E-04  7.426981E-04  1.053496E-03  1.243308E-04 -1.243308E-04
         7   4  1.136039E-03  1.864406E-03  5.500224E-04  6.714961E-04 -7.000374E-05  1.118561E-03
         7   5  1.933659E-03 -2.751555E-03 -1.426306E-03 -5.637329E-04 -4.347517E-03 -4.502196E-03
         7   6 -4.612557E-03 -4.612557E-03 -1.017554E-03 -7.030205E-05  6.292849E-03 -6.292849E-03
         7   7  9.366132E-03  9.366132E-03  3.870167E-03 -8.725089E-05 -6.120257E-03  6.120257E-03
         7   8 -2.751555E-03  1.933659E-03 -1.426306E-03 -5.637329E-04  4.502196E-03  4.347517E-03
         8   1  1.190303E-03  1.190303E-03 -1.842743E-03 -2.711548E-04  4.141764E-04  4.141764E-04
         8   2  1.864406E-03  1.136039E-03  5.500224E-04 -6.714961E-04  1.118561E-03  7.000374E-05
         8   3  1.136039E-03  1.864406E-03  5.500224E-04 -6.714961E-04  7.000374E-05  1.118561E-03
         8   4  6.861926E-04  6.861926E-04  7.426981E-04 -1.053496E-03 -1.243308E-04 -1.243308E-04
         8   5 -4.612557E-03 -4.612557E-03 -1.017554E-03  7.030205E-05 -6.292849E-03 -6.292849E-03
         8   6  1.933659E-03 -2.751555E-03 -1.426306E-03  5.637329E-04  4.347517E-03 -4.502196E-03
         8   7 -2.751555E-03  1.933659E-03 -1.426306E-03  5.637329E-04 -4.502196E-03  4.347517E-03
         8   8  9.366132E-03  9.366132E-03  3.870167E-03  8.725089E-05  6.120257E-03  6.120257E-03
         9   1 -9.921934E-03 -9.921934E-03 -8.413543E-03 -1.903583E-03  4.635983E-03  4.635983E-03
         9   2 -5.913596E-03 -4.332136E-03  2.035583E-03 -1.077472E-03  2.315438E-03  2.583674E-04
         9   3 -4.332136E-03 -5.913596E-03  2.035583E-03 -1.077472E-03  2.583674E-04  2.315438E-03
         9   4 -2.983051E-03 -2.983051E-03  4.342377E-03 -5.006433E-04  4.814972E-04  4.814972E-04
         9   5 -1.411071E-02 -1.411071E-02  5.283664E-04  9.397132E-03  9.683215E-03  9.683215E-03
         9   6  1.470071E-02 -9.243740E-03 -2.061819E-03  4.539242E-03 -2.110559E-02  2.006704E-02
         9   7 -9.243740E-03  1.470071E-02 -2.061819E-03  4.539242E-03  2.006704E-02 -2.110559E-02
         9   8  1.435217E-02  1.435217E-02  3.595272E-03  2.389120E-03 -2.118046E-02 -2.118046E-02
        10   1 -5.913596E-03 -4.332136E-03  2.035583E-03  1.077472E-03 -2.315438E-03  2.583674E-04
        10   2 -9.921934E-03 -9.921934E-03 -8.413543E-03  1.903583E-03 -4.635983E-03  4.635983E-03
        10   3 -2.983051E-03 -2.983051E-03  4.342377E-03  5.006433E-04 -4.814972E-04  4.814972E-04
        10   4 -4.332136E-03 -5.913596E-03  2.035583E-03  1.077472E-03 -2.583674E-04  2.315438E-03
        10   5  1.470071E-02 -9.243740E-03 -2.061819E-03 -4.539242E-03  2.110559E-02  2.006704E-02
        10   6 -1.411071E-02 -1.411071E-02  5.283664E-04 -9.397132E-03 -9.683215E-03  9.683215E-03
        10   7  1.435217E-02  1.435217E-02  3.595272E-03 -2.389120E-03  2.118046E-02 -2.118046E-02
        10   8 -9.243740E-03  1.470071E-02 -2.061819E-03 -4.539242E-03 -2.006704E-02 -2.110559E-02
        11   1 -4.332136E-03 -5.913596E-03  2.035583E-03  1.077472E-03  2.583674E-04 -2.315438E-03
        11   2 -2.983051E-03 -2.983051E-03  4.342377E-03  5.006433E-04  4.814972E-04 -4.814972E-04
        11   3 -9.921934E-03 -9.921934E-03 -8.413543E-03  1.903583E-03  4.635983E-03 -4.635983E-03
        11   4 -5.913596E-03 -4.332136E-03  2.035583E-03  1.077472E-03  2.315438E-03 -2.583674E-04
        11   5 -9.243740E-03  1.470071E-02 -2.061819E-03 -4.539242E-03  2.006704E-02  2.110559E-02
        11   6  1.435217E-02  1.435217E-02  3.595272E-03 -2.389120E-03 -2.118046E-02  2.118046E-02
        11   7 -1.411071E-02 -1.411071E-02  5.283664E-04 -9.397132E-03  9.683215E-03 -9.683215E-03
        11   8  1.470071E-02 -9.243740E-03 -2.061819E-03 -4.539242E-03 -2.110559E-02 -2.006704E-02
        12   1 -2.983051E-03 -2.983051E-03  4.342377E-03 -5.006433E-04 -4.814972E-04 -4.814972E-04
        12   2 -4.332136E-03 -5.913596E-03  2.035583E-03 -1.077472E-03 -2.583674E-04 -2.315438E-03
        12   3 -5.913596E-03 -4.332136E-03  2.035583E-03 -1.077472E-03 -2.315438E-03 -2.583674E-04
        12   4 -9.921934E-03 -9.921934E-03 -8.413543E-03 -1.903583E-03 -4.635983E-03 -4.635983E-03
        12   5  1.435217E-02  1.435217E-02  3.595272E-03  2.389120E-03  2.118046E-02  2.118046E-02
        12   6 -9.243740E-03  1.470071E-02 -2.061819E-03  4.539242E-03 -2.006704E-02  2.110559E-02
        12   7  1.470071E-02 -9.243740E-03 -2.061819E-03  4.539242E-03  2.110559E-02 -2.006704E-02
        12   8 -1.411071E-02 -1.411071E-02  5.283664E-04  9.397132E-03 -9.683215E-03 -9.683215E-03
        13   1  4.523951E-04  4.523951E-04  8.189210E-04 -8.132530E-03  6.503829E-03  6.503829E-03
        13   2  1.096899E-02  1.322614E-02  2.512361E-03 -5.456494E-03 -2.591776E-04 -4.717629E-03
        13   3  1.322614E-02  1.096899E-02  2.512361E-03 -5.456494E-03 -4.717629E-03 -2.591776E-04
        13   4  1.736891E-02  1.736891E-02 -5.843643E-03 -2.191128E-03 -2.524881E-03 -2.524881E-03
        13   5  1.284763E-01  1.284763E-01  6.700239E-02 -5.988859E-03 -9.090110E-02 -9.090110E-02
        13   6  3.286242E-03  5.775210E-02 -3.809956E-03  5.035991E-04  5.156471E-02 -8.252906E-02
        13   7  5.775210E-02  3.286242E-03 -3.809956E-03  5.035991E-04 -8.252906E-02  5.156471E-02
        13   8 -3.513451E-02 -3.513451E-02 -5.938248E-02 -1.159346E-03  6.300215E-02  6.300215E-02
        14   1  1.096899E-02  1.322614E-02  2.512361E-03  5.456494E-03  2.591776E-04 -4.717629E-03
        14   2  4.523951E-04  4.523951E-04  8.189210E-04  8.132530E-03 -6.503829E-03  6.503829E-03
        14   3  1.736891E-02  1.736891E-02 -5.843643E-03  2.191128E-03  2.524881E-03 -2.524881E-03
        14   4  1.322614E-02  1.096899E-02  2.512361E-03  5.456494E-03  4.717629E-03 -2.591776E-04
        14   5  3.286242E-03  5.775210E-02 -3.809956E-03 -5.035991E-04 -5.156471E-02 -8.252906E-02
        14   6  1.284763E-01  1.284763E-01  6.700239E-02  5.988859E-03  9.090110E-02 -9.090110E-02
        14   7 -3.513451E-02 -3.513451E-02 -5.938248E-02  1.159346E-03 -6.300215E-02  6.300215E-02
        14   8  5.775210E-02  3.286242E-03 -3.809956E-03 -5.035991E-04  8.252906E-02  5.156471E-02
        15   1  1.322614E-02  1.096899E-02  2.512361E-03  5.456494E-03 -4.717629E-03  2.591776E-04
        15   2  1.736891E-02  1.736891E-02 -5.843643E-03  2.191128E-03 -2.524881E-03  2.524881E-03
        15   3  4.523951E-04  4.523951E-04  8.189210E-04  8.132530E-03  6.503829E-03 -6.503829E-03
        15   4  1.096899E-02  1.322614E-02  2.512361E-03  5.456494E-03 -2.591776E-04  4.717629E-03
        15   5  5.775210E-02  3.286242E-03 -3.809956E-03 -5.035991E-04 -8.252906E-02 -5.156471E-02
        15   6 -3.513451E-02 -3.513451E-02 -5.938248E-02  1.159346E-03  6.300215E-02 -6.300215E-02
        15   7  1.284763E-01  1.284763E-01  6.700239E-02  5.988859E-03 -9.090110E-02  9.090110E-02
        15   8  3.286242E-03  5.775210E-02 -3.809956E-03 -5.035991E-04  5.156471E-02  8.252906E-02
        16   1  1.736891E-02  1.736891E-02 -5.843643E-03 -2.191128E-03  2.524881E-03  2.524881E-03
        16   2  1.322614E-02  1.096899E-02  2.512361E-03 -5.456494E-03  4.717629E-03  2.591776E-04
        16   3  1.096899E-02  1.322614E-02  2.512361E-03 -5.456494E-03  2.591776E-04  4.717629E-03
        16   4  4.523951E-04  4.523951E-04  8.189210E-04 -8.132530E-03 -6.503829E-03 -6.503829E-03
        16   5 -3.513451E-02 -3.513451E-02 -5.938248E-02 -1.159346E-03 -6.300215E-02 -6.300215E-02
        16   6  5.775210E-02  3.286242E-03 -3.809956E-03  5.035991E-04  8.252906E-02 -5.156471E-02
        16   7  3.286242E-03  5.775210E-02 -3.809956E-03  5.035991E-04 -5.156471E-02  8.252906E-02
        16   8  1.284763E-01  1.284763E-01  6.700239E-02 -5.988859E-03  9.090110E-02  9.090110E-02
        17   1 -1.948833E-01 -1.948833E-01 -1.629791E-01  8.654356E-04  8.657075E-02  8.657075E-02
        17   2 -1.269118E-01 -1.336150E-01  3.943483E-04  1.911885E-03  3.960292E-02  6.666684E-02
        17   3 -1.336150E-01 -1.269118E-01  3.943483E-04  1.911885E-03  6.666684E-02  3.960292E-02
        17   4 -5.486385E-02 -5.486385E-02  1.621904E-01  1.360334E-04  3.419955E-02  3.419955E-02
        17   5  8.853383E-02  8.853383E-02  1.911181E-01  4.192777E-02  2.320904E-02  2.320904E-02
        17   6  3.620736E-01  1.181244E-01  1.637154E-02  1.531883E-02 -3.264313E-01  6.513043E-02
        17   7  1.181244E-01  3.620736E-01  1.637154E-02  1.531883E-02  6.513043E-02 -3.264313E-01
        17   8  3.081017E-01  3.081017E-01 -2.238612E-01  9.202615E-03 -3.590226E-01 -3.590226E-01
        18   1 -1.269118E-01 -1.336150E-01  3.943483E-04 -1.911885E-03 -3.960292E-02  6.666684E-02
        18   2 -1.948833E-01 -1.948833E-01 -1.629791E-01 -8.654356E-04 -8.657075E-02  8.657075E-02
        18   3 -5.486385E-02 -5.486385E-02  1.621904E-01 -1.360334E-04 -3.419955E-02  3.419955E-02
        18   4 -1.336150E-01 -1.269118E-01  3.943483E-04 -1.911885E-03 -6.666684E-02  3.960292E-02
        18   5  3.620736E-01  1.181244E-01  1.637154E-02 -1.531883E-02  3.264313E-01  6.513043E-02
        18   6  8.853383E-02  8.853383E-02  1.911181E-01 -4.192777E-02 -2.320904E-02  2.320904E-02
        18   7  3.081017E-01  3.081017E-01 -2.238612E-01 -9.202615E-03  3.590226E-01 -3.590226E-01
        18   8  1.181244E-01  3.620736E-01  1.637154E-02 -1.531883E-02 -6.513043E-02 -3.264313E-01
        19   1 -1.336150E-01 -1.269118E-01  3.943483E-04 -1.911885E-03  6.666684E-02 -3.960292E-02
        19   2 -5.486385E-02 -5.486385E-02  1.621904E-01 -1.360334E-04  3.419955E-02 -3.419955E-02
        19   3 -1.948833E-01 -1.948833E-01 -1.629791E-01 -8.654356E-04  8.657075E-02 -8.657075E-02
        19   4 -1.269118E-01 -1.336150E-01  3.943483E-04 -1.911885E-03  3.960292E-02 -6.666684E-02
        19   5  1.181244E-01  3.620736E-01  1.637154E-02 -1.531883E-02  6.513043E-02  3.264313E-01
        19   6  3.081017E-01  3.081017E-01 -2.238612E-01 -9.202615E-03 -3.590226E-01  3.590226E-01
        19   7  8.853383E-02  8.853383E-02  1.911181E-01 -4.192777E-02  2.320904E-02 -2.320904E-02
        19   8  3.620736E-01  1.181244E-01  1.637154E-02 -1.531883E-02 -3.264313E-01 -6.513043E-02
        20   1 -5.486385E-02 -5.486385E-02  1.621904E-01  1.360334E-04 -3.419955E-02 -3.419955E-02
        20   2 -1.336150E-01 -1.269118E-01  3.943483E-04  1.911885E-03 -6.666684E-02 -3.960292E-02
        20   3 -1.269118E-01 -1.336150E-01  3.943483E-04  1.911885E-03 -3.960292E-02 -6.666684E-02
        20   4 -1.948833E-01 -1.948833E-01 -1.629791E-01  8.654356E-04 -8.657075E-02 -8.657075E-02
        20   5  3.081017E-01  3.081017E-01 -2.238612E-01  9.202615E-03  3.590226E-01  3.590226E-01
        20   6  1.181244E-01  3.620736E-01  1.637154E-02  1.531883E-02 -6.513043E-02  3.264313E-01
        20   7  3.620736E-01  1.181244E-01  1.637154E-02  1.531883E-02  3.264313E-01 -6.513043E-02
        20   8  8.853383E-02  8.853383E-02  1.911181E-01  4.192777E-02 -2.320904E-02 -2.320904E-02
        21   1 -5.512746E-01 -5.512746E-01 -4.765586E-01  3.682285E-02  3.730909E-01  3.730909E-01