
 displacements (vx,vy,vz) for set NALL and time  0.1000000E+01

         1  2.188930E-06  0.000000E+00  0.000000E+00
         2  2.188930E-06  1.000000E-01  5.494227E+02
         3  2.188930E-06  0.000000E+00  0.000000E+00
         4  2.188930E-06  9.874291E-02  5.499836E+02
         5  2.188930E-06  0.000000E+00  0.000000E+00
         6  2.188930E-06  9.871530E-02  5.499836E+02
         7  2.188930E-06  0.000000E+00  0.000000E+00
         8  2.188930E-06  9.780207E-02  5.493963E+02
         9  2.188930E-06  0.000000E+00  0.000000E+00
        10  2.188930E-06  9.614783E-02  5.493753E+02
        11  2.188930E-06  0.000000E+00  0.000000E+00
        12  2.188930E-06  9.575275E-02  5.493701E+02
        13  2.188930E-06  0.000000E+00  0.000000E+00
        14  2.188930E-06  9.541295E-02  5.493655E+02
        15  2.188930E-06  0.000000E+00  0.000000E+00
        16  2.188930E-06  9.503127E-02  5.493604E+02
        17  2.188930E-06  0.000000E+00  0.000000E+00
        18  2.188930E-06  9.500863E-02  5.493601E+02
        19  2.188930E-06  0.000000E+00  0.000000E+00
        20  2.188930E-06  5.274145E-02  5.478935E+02
        21  2.188930E-06  0.000000E+00  0.000000E+00
        22  2.188930E-06  5.000000E-02  5.499641E+02
        23  2.188930E-06  0.000000E+00  0.000000E+00

 temperatures for set NALL and time  0.1000000E+01

         1  0.000000E+00
         2  5.500000E+02
         3  0.000000E+00
         4  5.500000E+02
         5  0.000000E+00
         6  5.500000E+02
         7  0.000000E+00
         8  5.500000E+02
         9  0.000000E+00
        10  5.500000E+02
        11  0.000000E+00
        12  5.500000E+02
        13  0.000000E+00
        14  5.500000E+02
        15  0.000000E+00
        16  5.500000E+02
        17  0.000000E+00
        18  5.500000E+02
        19  0.000000E+00
        20  5.500000E+02
        21  0.000000E+00
        22  5.500000E+02
        23  0.000000E+00
