    1C
    1UUSER                                                              
    1UDATE              15.december.2018                                
    1UTIME              15:55:21                                        
    1UHOST                                                              
    1UPGM               CalculiX                                        
    1UVERSION           Version 2.15                             
    1UCOMPILETIME       Sa 15. Dez 14:32:01 CET 2018                    
    1UDIR                                                               
    1UDBN                                                               
    1UMAT    1EL                                                        
    2C                            51                                     1
 -1        22-7.45058E-09-7.45058E-09-5.00000E-03
 -1        23-7.45058E-09-7.45058E-09 0.00000E+00
 -1        24-7.45058E-09-7.45058E-09 5.00000E-03
 -1        25 5.00000E-01-7.45058E-09-1.50000E-02
 -1        26 5.00000E-01-7.45058E-09 0.00000E+00
 -1        27 5.00000E-01-7.45058E-09 1.50000E-02
 -1        28 5.00000E-01 5.00000E-01-1.50000E-02
 -1        29 5.00000E-01 5.00000E-01 0.00000E+00
 -1        30 5.00000E-01 5.00000E-01 1.50000E-02
 -1        31-7.45058E-09 5.00000E-01-5.00000E-03
 -1        32-7.45058E-09 5.00000E-01 0.00000E+00
 -1        33-7.45058E-09 5.00000E-01 5.00000E-03
 -1        34 2.50000E-01-7.45058E-09-1.00000E-02
 -1        36 2.50000E-01-7.45058E-09 1.00000E-02
 -1        37 5.00000E-01 2.50000E-01-1.50000E-02
 -1        39 5.00000E-01 2.50000E-01 1.50000E-02
 -1        40 2.50000E-01 5.00000E-01-1.00000E-02
 -1        42 2.50000E-01 5.00000E-01 1.00000E-02
 -1        43-7.45058E-09 2.50000E-01-5.00000E-03
 -1        45-7.45058E-09 2.50000E-01 5.00000E-03
 -1        46 5.00000E-01 1.00000E+00-1.50000E-02
 -1        47 5.00000E-01 1.00000E+00 0.00000E+00
 -1        48 5.00000E-01 1.00000E+00 1.50000E-02
 -1        49-7.45058E-09 1.00000E+00-5.00000E-03
 -1        50-7.45058E-09 1.00000E+00 0.00000E+00
 -1        51-7.45058E-09 1.00000E+00 5.00000E-03
 -1        52 5.00000E-01 7.50000E-01-1.50000E-02
 -1        54 5.00000E-01 7.50000E-01 1.50000E-02
 -1        55 2.50000E-01 1.00000E+00-1.00000E-02
 -1        57 2.50000E-01 1.00000E+00 1.00000E-02
 -1        58-7.45058E-09 7.50000E-01-5.00000E-03
 -1        60-7.45058E-09 7.50000E-01 5.00000E-03
 -1        61 1.00000E+00-7.45058E-09-1.00000E-02
 -1        62 1.00000E+00-7.45058E-09 0.00000E+00
 -1        63 1.00000E+00-7.45058E-09 1.00000E-02
 -1        64 1.00000E+00 5.00000E-01-1.00000E-02
 -1        65 1.00000E+00 5.00000E-01 0.00000E+00
 -1        66 1.00000E+00 5.00000E-01 1.00000E-02
 -1        67 7.50000E-01-7.45058E-09-1.25000E-02
 -1        69 7.50000E-01-7.45058E-09 1.25000E-02
 -1        70 1.00000E+00 2.50000E-01-1.00000E-02
 -1        72 1.00000E+00 2.50000E-01 1.00000E-02
 -1        73 7.50000E-01 5.00000E-01-1.25000E-02
 -1        75 7.50000E-01 5.00000E-01 1.25000E-02
 -1        76 1.00000E+00 1.00000E+00-1.00000E-02
 -1        77 1.00000E+00 1.00000E+00 0.00000E+00
 -1        78 1.00000E+00 1.00000E+00 1.00000E-02
 -1        79 1.00000E+00 7.50000E-01-1.00000E-02
 -1        81 1.00000E+00 7.50000E-01 1.00000E-02
 -1        82 7.50000E-01 1.00000E+00-1.25000E-02
 -1        84 7.50000E-01 1.00000E+00 1.25000E-02
 -3
    3C                             4                                     1
 -1         1    4    0    1
 -2        22        25        28        31        24        27        30        33        34        37
 -2        40        43        23        26        29        32        36        39        42        45
 -1         2    4    0    1
 -2        31        28        46        49        33        30        48        51        40        52
 -2        55        58        32        29        47        50        42        54        57        60
 -1         3    4    0    1
 -2        25        61        64        28        27        63        66        30        67        70
 -2        73        37        26        62        65        29        69        72        75        39
 -1         4    4    0    1
 -2        28        64        76        46        30        66        78        48        73        79
 -2        82        52        29        65        77        47        75        81        84        54
 -3
    1PSTEP                         1           1           1          
  100CL  101 1.000000000          51                     0    1           1
 -4  DISP        4    1
 -5  D1          1    2    1    0
 -5  D2          1    2    2    0
 -5  D3          1    2    3    0
 -5  ALL         1    2    0    0    1ALL
 -1        22 0.00000E+00 0.00000E+00-5.10987E-06
 -1        23 0.00000E+00 0.00000E+00 0.00000E+00
 -1        24 0.00000E+00 0.00000E+00 5.10987E-06
 -1        25-6.93168E-05-4.13640E-04-1.48301E-02
 -1        26 4.51096E-04-5.46810E-04-1.48309E-02
 -1        27 9.71126E-04-6.80157E-04-1.48295E-02
 -1        28 1.68005E-04 3.69793E-12-1.26900E-02
 -1        29 6.33757E-04 2.75739E-12-1.26732E-02
 -1        30 1.10090E-03 1.81844E-12-1.26542E-02
 -1        31 0.00000E+00 0.00000E+00-1.43711E-05
 -1        32 0.00000E+00 0.00000E+00 0.00000E+00
 -1        33 0.00000E+00 0.00000E+00 1.43711E-05
 -1        34-5.47231E-05-3.77769E-04-5.92715E-03
 -1        36 5.99485E-04-4.65804E-04-5.90918E-03
 -1        37 1.14294E-04-1.93447E-04-1.32125E-02
 -1        39 1.12570E-03-3.17597E-04-1.31933E-02
 -1        40 1.44512E-04 3.01306E-12-4.91495E-03
 -1        42 6.94111E-04 2.39780E-12-4.90581E-03
 -1        43 0.00000E+00 0.00000E+00-9.56899E-06
 -1        45 0.00000E+00 0.00000E+00 9.56899E-06
 -1        46-6.93168E-05 4.13640E-04-1.48301E-02
 -1        47 4.51096E-04 5.46810E-04-1.48309E-02
 -1        48 9.71126E-04 6.80157E-04-1.48295E-02
 -1        49 0.00000E+00 0.00000E+00-5.10987E-06
 -1        50 0.00000E+00 0.00000E+00 0.00000E+00
 -1        51 0.00000E+00 0.00000E+00 5.10987E-06
 -1        52 1.14294E-04 1.93447E-04-1.32125E-02
 -1        54 1.12570E-03 3.17597E-04-1.31933E-02
 -1        55-5.47231E-05 3.77769E-04-5.92715E-03
 -1        57 5.99485E-04 4.65804E-04-5.90918E-03
 -1        58 0.00000E+00 0.00000E+00-9.56899E-06
 -1        60 0.00000E+00 0.00000E+00 9.56899E-06
 -1        61 4.35784E-04-4.93784E-04-3.29801E-02
 -1        62 8.08969E-04-6.16157E-04-3.29816E-02
 -1        63 1.18450E-03-7.38369E-04-3.29804E-02
 -1        64 1.02493E-03 2.37722E-12-2.84316E-02
 -1        65 1.31613E-03 1.05841E-12-2.84201E-02
 -1        66 1.60286E-03-2.60096E-13-2.84079E-02
 -1        67 2.23320E-04-4.44592E-04-2.37817E-02
 -1        69 1.11054E-03-7.00664E-04-2.37625E-02
 -1        70 6.37708E-04-2.18116E-04-2.99598E-02
 -1        72 1.30400E-03-4.30971E-04-2.99495E-02
 -1        73 5.44352E-04 3.38203E-12-2.06927E-02
 -1        75 1.32665E-03 9.89169E-13-2.06857E-02
 -1        76 4.35784E-04 4.93784E-04-3.29801E-02
 -1        77 8.08969E-04 6.16157E-04-3.29816E-02
 -1        78 1.18450E-03 7.38369E-04-3.29804E-02
 -1        79 6.37708E-04 2.18116E-04-2.99598E-02
 -1        81 1.30400E-03 4.30971E-04-2.99495E-02
 -1        82 2.23320E-04 4.44592E-04-2.37817E-02
 -1        84 1.11054E-03 7.00664E-04-2.37625E-02
 -3
    1PSTEP                         2           1           1          
  100CL  101 1.000000000          51                     0    1           1
 -4  NDTEMP      1    1
 -5  T           1    1    0    0
 -1        22 3.68000E+02
 -1        23 3.73000E+02
 -1        24 3.78000E+02
 -1        25 3.58000E+02
 -1        26 3.73000E+02
 -1        27 3.88000E+02
 -1        28 3.58000E+02
 -1        29 3.73000E+02
 -1        30 3.88000E+02
 -1        31 3.68000E+02
 -1        32 3.73000E+02
 -1        33 3.78000E+02
 -1        34 3.63000E+02
 -1        36 3.83000E+02
 -1        37 3.58000E+02
 -1        39 3.88000E+02
 -1        40 3.63000E+02
 -1        42 3.83000E+02
 -1        43 3.68000E+02
 -1        45 3.78000E+02
 -1        46 3.58000E+02
 -1        47 3.73000E+02
 -1        48 3.88000E+02
 -1        49 3.68000E+02
 -1        50 3.73000E+02
 -1        51 3.78000E+02
 -1        52 3.58000E+02
 -1        54 3.88000E+02
 -1        55 3.63000E+02
 -1        57 3.83000E+02
 -1        58 3.68000E+02
 -1        60 3.78000E+02
 -1        61 3.63000E+02
 -1        62 3.73000E+02
 -1        63 3.83000E+02
 -1        64 3.63000E+02
 -1        65 3.73000E+02
 -1        66 3.83000E+02
 -1        67 3.60500E+02
 -1        69 3.85500E+02
 -1        70 3.63000E+02
 -1        72 3.83000E+02
 -1        73 3.60500E+02
 -1        75 3.85500E+02
 -1        76 3.63000E+02
 -1        77 3.73000E+02
 -1        78 3.83000E+02
 -1        79 3.63000E+02
 -1        81 3.83000E+02
 -1        82 3.60500E+02
 -1        84 3.85500E+02
 -3
    1PSTEP                         3           1           1          
  100CL  101 1.000000000          51                     0    1           1
 -4  STRESS      6    1
 -5  SXX         1    4    1    1
 -5  SYY         1    4    2    2
 -5  SZZ         1    4    3    3
 -5  SXY         1    4    1    2
 -5  SYZ         1    4    2    3
 -5  SZX         1    4    3    1
 -1        22-3.30487E+02-3.29386E+02-1.28374E+02-1.63518E+02 4.57582E+00-1.46317E+00
 -1        23-5.77319E+00-2.12401E+02-1.51199E-01-1.73300E+02 3.81859E+00-3.16770E+00
 -1        24 3.18940E+02-9.54171E+01 1.28071E+02-1.83083E+02 3.06136E+00-4.87223E+00
 -1        25 1.39767E+02 6.22356E+01 3.45945E+01 7.16748E+01-1.86145E+00-1.65243E+00
 -1        26 5.81718E+01 5.02719E+01 4.29531E-01 5.44870E+01-1.17215E+00-3.09762E+00
 -1        27-2.34235E+01 3.83082E+01-3.37355E+01 3.72991E+01-4.82857E-01-4.54280E+00
 -1        28 5.60742E+01-1.66083E+01 2.69466E+01-5.28152E-08 1.61208E-08-8.92190E+00
 -1        29 1.23952E+00-3.37933E+01-3.13832E-01-3.04228E-07 2.83651E-08-2.13698E-02
 -1        30-5.35951E+01-5.09784E+01-2.75742E+01-5.55640E-07 4.06095E-08 8.87916E+00
 -1        31-8.98571E+01-2.47881E+02-1.00287E+02 1.62728E-06-5.83334E-08 3.03819E+00
 -1        32 1.68779E+02-1.59345E+02-1.63773E-01 1.58512E-06-5.03523E-08-5.02565E+00
 -1        33 4.27415E+02-7.08088E+01 9.99596E+01 1.54296E-06-4.23713E-08-1.30895E+01
 -1        34-6.84202E+01-1.10376E+02-3.84177E+01-3.43707E+01 4.54826E-01 6.38474E-01
 -1        36 1.30480E+02-2.69752E+01 3.84722E+01-6.91699E+01 7.47661E-01-7.44269E+00
 -1        37 9.79206E+01 2.28137E+01 3.07706E+01 3.50320E+01-1.28186E+00-5.28716E+00
 -1        39-3.85093E+01-6.33512E+00-3.06549E+01-1.77202E+00-9.39070E-02 2.16818E+00
 -1        40-1.16692E+01-1.16153E+02-3.04669E+01 8.07074E-07-1.53245E-08-5.82262E+00
 -1        42 1.66892E+02-5.89775E+01 3.09476E+01 5.04526E-07 3.30158E-09 1.73191E+00
 -1        43-2.10172E+02-2.88633E+02-1.14330E+02-7.67054E+01 7.94371E-01 7.87511E-01
 -1        45 3.73178E+02-8.31130E+01 1.14015E+02-8.87944E+01-2.83491E-01-8.98086E+00
 -1        46 1.39767E+02 6.22356E+01 3.45945E+01-7.16748E+01 1.86145E+00-1.65243E+00
 -1        47 5.81718E+01 5.02719E+01 4.29531E-01-5.44870E+01 1.17215E+00-3.09762E+00
 -1        48-2.34235E+01 3.83082E+01-3.37355E+01-3.72991E+01 4.82857E-01-4.54280E+00
 -1        49-3.30487E+02-3.29386E+02-1.28374E+02 1.63518E+02-4.57582E+00-1.46317E+00
 -1        50-5.77319E+00-2.12401E+02-1.51199E-01 1.73300E+02-3.81859E+00-3.16770E+00
 -1        51 3.18940E+02-9.54171E+01 1.28071E+02 1.83083E+02-3.06136E+00-4.87223E+00
 -1        52 9.79206E+01 2.28137E+01 3.07706E+01-3.50320E+01 1.28186E+00-5.28716E+00
 -1        54-3.85093E+01-6.33512E+00-3.06549E+01 1.77202E+00 9.39070E-02 2.16818E+00
 -1        55-6.84202E+01-1.10376E+02-3.84177E+01 3.43707E+01-4.54826E-01 6.38475E-01
 -1        57 1.30480E+02-2.69752E+01 3.84722E+01 6.91699E+01-7.47661E-01-7.44269E+00
 -1        58-2.10172E+02-2.88633E+02-1.14330E+02 7.67054E+01-7.94371E-01 7.87511E-01
 -1        60 3.73178E+02-8.31130E+01 1.14015E+02 8.87944E+01 2.83491E-01-8.98086E+00
 -1        61-5.67568E+01 2.65619E+01-8.44418E+00-2.23146E+01-4.42072E-01-9.51139E+00
 -1        62-7.39535E+01-2.60389E+01-4.68622E-01-4.87098E+01 1.97543E-01 2.13331E+00
 -1        63-9.11502E+01-7.86397E+01 7.50694E+00-7.51049E+01 8.37158E-01 1.37780E+01
 -1        64 2.05264E+02-1.26767E+01-7.52488E+00 3.41205E-07-1.28261E-09 2.29792E+01
 -1        65 1.71155E+02 8.20465E+01 1.11363E+00 8.59705E-09 1.66783E-08-2.37915E+00
 -1        66 1.37046E+02 1.76770E+02 9.75215E+00-3.24011E-07 3.46393E-08-2.77375E+01
 -1        67 1.45655E+01 2.12002E+01 4.60337E+00 1.31292E+01-2.49403E-01-7.77818E+00
 -1        69-4.00086E+01-2.17451E+01-4.41864E+00-2.26250E+01 7.18740E-01 7.35277E+00
 -1        70 7.42538E+01 6.94261E+00-7.98453E+00 6.06515E+01 1.01100E+00 6.73388E+00
 -1        72 2.29478E+01 4.90650E+01 8.62955E+00 1.39277E+01 2.24474E+00-6.97973E+00
 -1        73 1.25447E+02-3.07345E+01 3.50748E+00 1.24355E-07 1.63734E-09 9.90939E+00
 -1        75 6.17435E+01 6.09795E+01-3.66596E+00-4.50691E-07 3.34419E-08-1.32662E+01
 -1        76-5.67568E+01 2.65619E+01-8.44418E+00 2.23146E+01 4.42072E-01-9.51139E+00
 -1        77-7.39535E+01-2.60389E+01-4.68622E-01 4.87098E+01-1.97543E-01 2.13331E+00
 -1        78-9.11503E+01-7.86397E+01 7.50694E+00 7.51049E+01-8.37158E-01 1.37780E+01
 -1        79 7.42538E+01 6.94261E+00-7.98453E+00-6.06515E+01-1.01100E+00 6.73388E+00
 -1        81 2.29478E+01 4.90650E+01 8.62955E+00-1.39277E+01-2.24474E+00-6.97973E+00
 -1        82 1.45655E+01 2.12002E+01 4.60337E+00-1.31292E+01 2.49403E-01-7.77818E+00
 -1        84-4.00086E+01-2.17451E+01-4.41864E+00 2.26250E+01-7.18740E-01 7.35277E+00
 -3
    1PSTEP                         4           1           1          
  100CL  101 1.000000000          51                     0    1           1
 -4  FORC        4    1
 -5  F1          1    2    1    0
 -5  F2          1    2    2    0
 -5  F3          1    2    3    0
 -5  ALL         1    2    0    0    1ALL
 -1        22 2.17086E-01 1.17126E-01 2.64952E+00
 -1        23-6.10822E-02 2.91259E-01-5.29747E+00
 -1        24 4.64719E-02 5.47702E-02 2.64952E+00
 -1        25 4.77736E-05-1.17607E-05 2.09042E-03
 -1        26-2.74634E-07-3.48350E-07-1.03685E-07
 -1        27 8.47605E-07-9.10893E-08-2.66945E-06
 -1        28 9.92724E-05-7.04347E-13 4.18161E-03
 -1        29-5.29022E-07-2.40150E-13-1.97461E-07
 -1        30 1.82152E-06 2.20362E-13-5.77745E-06
 -1        31 2.76956E-01 2.66221E-10 4.89920E+00
 -1        32-6.07550E-01-1.73673E-09-9.79283E+00
 -1        33 1.72133E-02-1.74720E-10 4.89920E+00
 -1        34 6.52188E-07-1.46039E-07-4.00891E-06
 -1        36-1.13127E-06-4.82198E-08 3.88421E-06
 -1        37-1.94010E-04 4.61216E-05-8.36327E-03
 -1        39-3.47858E-06 3.97413E-07 1.30464E-05
 -1        40 1.17788E-06 3.06365E-14-7.52145E-06
 -1        42-2.09508E-06-1.00093E-13 7.28579E-06
 -1        43 3.70698E-02 6.23124E-02 1.03487E-02
 -1        45-5.82264E-01 6.65201E-02 1.03537E-02
 -1        46 4.77736E-05 1.17607E-05 2.09042E-03
 -1        47-2.74634E-07 3.48349E-07-1.03676E-07
 -1        48 8.47604E-07 9.10896E-08-2.66945E-06
 -1        49 2.17086E-01-1.17126E-01 2.64952E+00
 -1        50-6.10822E-02-2.91259E-01-5.29747E+00
 -1        51 4.64720E-02-5.47702E-02 2.64952E+00
 -1        52-1.94010E-04-4.61216E-05-8.36327E-03
 -1        54-3.47858E-06-3.97413E-07 1.30464E-05
 -1        55 6.52188E-07 1.46039E-07-4.00891E-06
 -1        57-1.13127E-06 4.82198E-08 3.88422E-06
 -1        58 3.70699E-02-6.23124E-02 1.03487E-02
 -1        60-5.82264E-01-6.65201E-02 1.03537E-02
 -1        61 4.64141E-05-7.42218E-06 2.08956E-03
 -1        62 3.59419E-07-2.42520E-07 7.34528E-08
 -1        63 3.80740E-07-1.41879E-08-1.68580E-06
 -1        64-4.99898E-01-9.49461E-13 4.17894E-03
 -1        65 2.00000E+00-8.49192E-14 8.11856E-08
 -1        66-4.99999E-01 7.95086E-14-4.59714E-06
 -1        67-2.01226E-04 6.67721E-05-8.35903E-03
 -1        69-2.30075E-06 2.29526E-07 9.11417E-06
 -1        70-1.94152E-04 5.93643E-05-8.35957E-03
 -1        72-1.86168E-06 5.15197E-07 8.97347E-06
 -1        73-3.76492E-04 1.80085E-12-1.67174E-02
 -1        75-3.83403E-06-1.18951E-13 1.54875E-05
 -1        76 4.64141E-05 7.42218E-06 2.08956E-03
 -1        77 3.59420E-07 2.42520E-07 7.34480E-08
 -1        78 3.80739E-07 1.41879E-08-1.68581E-06
 -1        79-1.94152E-04-5.93643E-05-8.35957E-03
 -1        81-1.86168E-06-5.15197E-07 8.97347E-06
 -1        82-2.01226E-04-6.67721E-05-8.35903E-03
 -1        84-2.30075E-06-2.29526E-07 9.11418E-06
 -3
 9999
