    1C
    1UUSER                                                              
    1UDATE              15.december.2018                                
    1UTIME              15:55:22                                        
    1UHOST                                                              
    1UPGM               CalculiX                                        
    1UVERSION           Version 2.15                             
    1UCOMPILETIME       Sa 15. Dez 14:32:01 CET 2018                    
    1UDIR                                                               
    1UDBN                                                               
    1UMAT    1EL                                                        
    2C                            51                                     1
 -1        22-7.45058E-09-7.45058E-09-5.00000E-03
 -1        23-7.45058E-09-7.45058E-09 0.00000E+00
 -1        24-7.45058E-09-7.45058E-09 5.00000E-03
 -1        25 5.00000E-01-7.45058E-09-1.50000E-02
 -1        26 5.00000E-01-7.45058E-09 0.00000E+00
 -1        27 5.00000E-01-7.45058E-09 1.50000E-02
 -1        28 5.00000E-01 5.00000E-01-1.50000E-02
 -1        29 5.00000E-01 5.00000E-01 0.00000E+00
 -1        30 5.00000E-01 5.00000E-01 1.50000E-02
 -1        31-7.45058E-09 5.00000E-01-5.00000E-03
 -1        32-7.45058E-09 5.00000E-01 0.00000E+00
 -1        33-7.45058E-09 5.00000E-01 5.00000E-03
 -1        34 2.50000E-01-7.45058E-09-1.00000E-02
 -1        36 2.50000E-01-7.45058E-09 1.00000E-02
 -1        37 5.00000E-01 2.50000E-01-1.50000E-02
 -1        39 5.00000E-01 2.50000E-01 1.50000E-02
 -1        40 2.50000E-01 5.00000E-01-1.00000E-02
 -1        42 2.50000E-01 5.00000E-01 1.00000E-02
 -1        43-7.45058E-09 2.50000E-01-5.00000E-03
 -1        45-7.45058E-09 2.50000E-01 5.00000E-03
 -1        46 5.00000E-01 1.00000E+00-1.50000E-02
 -1        47 5.00000E-01 1.00000E+00 0.00000E+00
 -1        48 5.00000E-01 1.00000E+00 1.50000E-02
 -1        49-7.45058E-09 1.00000E+00-5.00000E-03
 -1        50-7.45058E-09 1.00000E+00 0.00000E+00
 -1        51-7.45058E-09 1.00000E+00 5.00000E-03
 -1        52 5.00000E-01 7.50000E-01-1.50000E-02
 -1        54 5.00000E-01 7.50000E-01 1.50000E-02
 -1        55 2.50000E-01 1.00000E+00-1.00000E-02
 -1        57 2.50000E-01 1.00000E+00 1.00000E-02
 -1        58-7.45058E-09 7.50000E-01-5.00000E-03
 -1        60-7.45058E-09 7.50000E-01 5.00000E-03
 -1        61 1.00000E+00-7.45058E-09-1.00000E-02
 -1        62 1.00000E+00-7.45058E-09 0.00000E+00
 -1        63 1.00000E+00-7.45058E-09 1.00000E-02
 -1        64 1.00000E+00 5.00000E-01-1.00000E-02
 -1        65 1.00000E+00 5.00000E-01 0.00000E+00
 -1        66 1.00000E+00 5.00000E-01 1.00000E-02
 -1        67 7.50000E-01-7.45058E-09-1.25000E-02
 -1        69 7.50000E-01-7.45058E-09 1.25000E-02
 -1        70 1.00000E+00 2.50000E-01-1.00000E-02
 -1        72 1.00000E+00 2.50000E-01 1.00000E-02
 -1        73 7.50000E-01 5.00000E-01-1.25000E-02
 -1        75 7.50000E-01 5.00000E-01 1.25000E-02
 -1        76 1.00000E+00 1.00000E+00-1.00000E-02
 -1        77 1.00000E+00 1.00000E+00 0.00000E+00
 -1        78 1.00000E+00 1.00000E+00 1.00000E-02
 -1        79 1.00000E+00 7.50000E-01-1.00000E-02
 -1        81 1.00000E+00 7.50000E-01 1.00000E-02
 -1        82 7.50000E-01 1.00000E+00-1.25000E-02
 -1        84 7.50000E-01 1.00000E+00 1.25000E-02
 -3
    3C                             4                                     1
 -1         1    4    0    1
 -2        22        25        28        31        24        27        30        33        34        37
 -2        40        43        23        26        29        32        36        39        42        45
 -1         2    4    0    1
 -2        31        28        46        49        33        30        48        51        40        52
 -2        55        58        32        29        47        50        42        54        57        60
 -1         3    4    0    1
 -2        25        61        64        28        27        63        66        30        67        70
 -2        73        37        26        62        65        29        69        72        75        39
 -1         4    4    0    1
 -2        28        64        76        46        30        66        78        48        73        79
 -2        82        52        29        65        77        47        75        81        84        54
 -3
    1PSTEP                         1           1           1          
  100CL  101 1.000000000          51                     0    1           1
 -4  DISP        4    1
 -5  D1          1    2    1    0
 -5  D2          1    2    2    0
 -5  D3          1    2    3    0
 -5  ALL         1    2    0    0    1ALL
 -1        22 0.00000E+00 0.00000E+00-5.88578E-06
 -1        23 0.00000E+00 0.00000E+00 0.00000E+00
 -1        24 0.00000E+00 0.00000E+00 5.88578E-06
 -1        25-1.14390E-03-4.11579E-05-1.78777E-02
 -1        26-3.46226E-04 7.85345E-07-1.78986E-02
 -1        27 4.51449E-04 4.26953E-05-1.79216E-02
 -1        28-1.21654E-03-4.53828E-13-1.84199E-02
 -1        29-3.73320E-04-7.62331E-14-1.84475E-02
 -1        30 4.69784E-04 3.01339E-13-1.84777E-02
 -1        31 0.00000E+00 0.00000E+00-1.11038E-06
 -1        32 0.00000E+00 0.00000E+00 0.00000E+00
 -1        33 0.00000E+00 0.00000E+00 1.11038E-06
 -1        34-5.30478E-04-1.25398E-05-6.64273E-03
 -1        36 3.49955E-04 1.26683E-05-6.66194E-03
 -1        37-1.08217E-03-9.69386E-06-1.83340E-02
 -1        39 3.45154E-04 1.01294E-05-1.83707E-02
 -1        40-5.43800E-04-1.25401E-13-6.72152E-03
 -1        42 3.55582E-04 1.15626E-13-6.73677E-03
 -1        43 0.00000E+00 0.00000E+00 8.01711E-07
 -1        45 0.00000E+00 0.00000E+00-8.01711E-07
 -1        46-1.14390E-03 4.11579E-05-1.78777E-02
 -1        47-3.46226E-04-7.85346E-07-1.78986E-02
 -1        48 4.51449E-04-4.26953E-05-1.79216E-02
 -1        49 0.00000E+00 0.00000E+00-5.88578E-06
 -1        50 0.00000E+00 0.00000E+00 0.00000E+00
 -1        51 0.00000E+00 0.00000E+00 5.88578E-06
 -1        52-1.08217E-03 9.69386E-06-1.83340E-02
 -1        54 3.45154E-04-1.01293E-05-1.83707E-02
 -1        55-5.30478E-04 1.25398E-05-6.64273E-03
 -1        57 3.49955E-04-1.26683E-05-6.66194E-03
 -1        58 0.00000E+00 0.00000E+00 8.01711E-07
 -1        60 0.00000E+00 0.00000E+00-8.01711E-07
 -1        61-1.43233E-03-2.66662E-05-4.31419E-02
 -1        62-9.83459E-04 1.03067E-06-4.31517E-02
 -1        63-5.34578E-04 2.87491E-05-4.31599E-02
 -1        64-1.54751E-03-6.90322E-13-4.43421E-02
 -1        65-1.04539E-03-2.80635E-13-4.43590E-02
 -1        66-5.42933E-04 1.29055E-13-4.43747E-02
 -1        67-1.31938E-03-3.99993E-05-3.04345E-02
 -1        69-2.77988E-06 4.16686E-05-3.04701E-02
 -1        70-1.56087E-03-2.66466E-05-4.39425E-02
 -1        72-4.88970E-04 2.65488E-05-4.39758E-02
 -1        73-1.35914E-03-6.33820E-13-3.12354E-02
 -1        75-4.35921E-05 2.92295E-13-3.12661E-02
 -1        76-1.43233E-03 2.66662E-05-4.31419E-02
 -1        77-9.83459E-04-1.03067E-06-4.31517E-02
 -1        78-5.34578E-04-2.87491E-05-4.31599E-02
 -1        79-1.56087E-03 2.66466E-05-4.39425E-02
 -1        81-4.88970E-04-2.65488E-05-4.39758E-02
 -1        82-1.31938E-03 3.99993E-05-3.04345E-02
 -1        84-2.77988E-06-4.16686E-05-3.04701E-02
 -3
    1PSTEP                         2           1           1          
  100CL  101 1.000000000          51                     0    1           1
 -4  STRESS      6    1
 -5  SXX         1    4    1    1
 -5  SYY         1    4    2    2
 -5  SZZ         1    4    3    3
 -5  SXY         1    4    1    2
 -5  SYZ         1    4    2    3
 -5  SZX         1    4    3    1
 -1        22-3.99831E+02-1.71682E+02-1.64375E+02 7.22590E-02 1.16932E+00 1.24253E+01
 -1        23 9.62348E-01 4.07929E-02-5.58067E-01-7.18341E-01-1.55659E+00 5.47279E+00
 -1        24 4.01755E+02 1.71764E+02 1.63259E+02-1.50894E+00-4.28250E+00-1.47972E+00
 -1        25-8.33998E+00 4.66777E+01 4.49867E+01 5.84433E+01-2.95665E+00-1.87371E+00
 -1        26-1.22730E-01-7.49281E-02 4.22192E-01 1.79644E-01 8.64924E-01-4.31068E+00
 -1        27 8.09452E+00-4.68276E+01-4.41423E+01-5.80840E+01 4.68650E+00-6.74766E+00
 -1        28 8.47309E+00 1.54666E+01 4.77048E+01 3.73629E-08-1.71864E-08 6.85751E+00
 -1        29 1.38903E-01-1.56806E-01-3.24348E-01-3.59147E-09-1.30954E-08 4.31231E+00
 -1        30-8.19528E+00-1.57802E+01-4.83535E+01-4.45459E-08-9.00451E-09 1.76712E+00
 -1        31-3.99574E+02-1.70303E+02-1.60351E+02 1.31412E-08 2.85739E-08-3.11768E+00
 -1        32-9.47754E-01-3.02399E-01-1.15170E-01 1.31545E-08 2.24298E-08-5.49135E+00
 -1        33 3.97678E+02 1.69698E+02 1.60121E+02 1.31678E-08 1.62857E-08-7.86501E+00
 -1        34-1.85795E+02-5.58037E+01-5.22442E+01 2.78184E+01-3.37880E+00 4.01651E+00
 -1        36 1.86470E+02 5.57371E+01 5.22786E+01-2.86357E+01-2.39993E+00-4.40903E+00
 -1        37 6.65519E-02 3.10722E+01 4.63457E+01-7.82175E+00-5.91876E-01 2.49190E+00
 -1        39-5.03789E-02-3.13039E+01-4.62479E+01 7.72528E+00-1.54325E+00-2.49027E+00
 -1        40-2.13690E+02-8.63567E+01-6.47619E+01 2.32019E-08 2.89229E-09 5.47937E+00
 -1        42 2.13054E+02 8.60691E+01 6.44451E+01-1.45508E-08 8.56935E-10-5.09178E+00
 -1        43-3.99702E+02-1.70993E+02-1.62363E+02 1.76141E+00 4.38134E+00 4.65381E+00
 -1        45 3.99717E+02 1.70731E+02 1.61690E+02-1.42852E+00 4.53321E+00-4.67236E+00
 -1        46-8.33998E+00 4.66777E+01 4.49867E+01-5.84433E+01 2.95665E+00-1.87371E+00
 -1        47-1.22730E-01-7.49281E-02 4.22192E-01-1.79644E-01-8.64924E-01-4.31068E+00
 -1        48 8.09452E+00-4.68276E+01-4.41423E+01 5.80840E+01-4.68650E+00-6.74766E+00
 -1        49-3.99831E+02-1.71682E+02-1.64375E+02-7.22592E-02-1.16932E+00 1.24253E+01
 -1        50 9.62348E-01 4.07929E-02-5.58067E-01 7.18341E-01 1.55659E+00 5.47279E+00
 -1        51 4.01755E+02 1.71764E+02 1.63259E+02 1.50894E+00 4.28250E+00-1.47972E+00
 -1        52 6.65520E-02 3.10722E+01 4.63457E+01 7.82174E+00 5.91876E-01 2.49190E+00
 -1        54-5.03790E-02-3.13039E+01-4.62479E+01-7.72528E+00 1.54325E+00-2.49027E+00
 -1        55-1.85795E+02-5.58037E+01-5.22442E+01-2.78184E+01 3.37880E+00 4.01651E+00
 -1        57 1.86470E+02 5.57371E+01 5.22786E+01 2.86357E+01 2.39993E+00-4.40903E+00
 -1        58-3.99702E+02-1.70993E+02-1.62363E+02-1.76141E+00-4.38134E+00 4.65381E+00
 -1        60 3.99717E+02 1.70731E+02 1.61690E+02 1.42852E+00-4.53321E+00-4.67236E+00
 -1        61 4.73408E+01 1.62722E+00-1.50150E+01-4.19548E+01-1.12263E+00-1.17077E+00
 -1        62 2.47434E-01 4.35621E-02-1.62480E-01-1.60239E-01-3.66929E+00 1.75538E+00
 -1        63-4.68460E+01-1.54010E+00 1.46900E+01 4.16343E+01-6.21594E+00 4.68153E+00
 -1        64-4.72192E+01 1.12551E+01-3.23562E+01-1.51266E-07 5.85734E-09 1.07482E+00
 -1        65-2.48181E-01 3.90474E-01 2.29144E-01-1.61671E-09-2.00830E-09-1.75181E+00
 -1        66 4.67229E+01-1.04741E+01 3.28145E+01 1.48033E-07-9.87395E-09-4.57844E+00
 -1        67 1.21042E+00 1.74540E+01 7.53592E+00 9.68362E+00 4.45494E-01-2.62950E-01
 -1        69-9.20994E-01-1.74529E+01-7.44648E+00-9.38563E+00 1.83721E+00-7.37720E-01
 -1        70 6.07910E-02 6.44114E+00-2.36856E+01-4.44402E+00 1.02101E+00-4.79757E-02
 -1        72-6.15383E-02-6.00710E+00 2.37523E+01 4.74969E+00 7.61789E-01 5.15449E-02
 -1        73-1.23281E+00 2.22993E+01 1.61131E+01-5.49014E-08-2.86305E-09 3.56705E-01
 -1        75 9.51017E-01-2.22373E+01-1.63310E+01 5.06051E-08-6.65555E-09 6.37176E-01
 -1        76 4.73408E+01 1.62722E+00-1.50150E+01 4.19548E+01 1.12263E+00-1.17077E+00
 -1        77 2.47434E-01 4.35621E-02-1.62480E-01 1.60239E-01 3.66929E+00 1.75538E+00
 -1        78-4.68460E+01-1.54010E+00 1.46900E+01-4.16343E+01 6.21594E+00 4.68153E+00
 -1        79 6.07911E-02 6.44114E+00-2.36856E+01 4.44402E+00-1.02101E+00-4.79757E-02
 -1        81-6.15384E-02-6.00710E+00 2.37523E+01-4.74969E+00-7.61789E-01 5.15449E-02
 -1        82 1.21042E+00 1.74540E+01 7.53592E+00-9.68362E+00-4.45494E-01-2.62950E-01
 -1        84-9.20994E-01-1.74529E+01-7.44648E+00 9.38563E+00-1.83721E+00-7.37720E-01
 -3
    1PSTEP                         3           1           1          
  100CL  101 1.000000000          51                     0    1           1
 -4  FORC        4    1
 -5  F1          1    2    1    0
 -5  F2          1    2    2    0
 -5  F3          1    2    3    0
 -5  ALL         1    2    0    0    1ALL
 -1        22 1.24822E-01 7.86479E-02 3.82290E+00
 -1        23-1.84767E-01 3.72246E-02-7.64039E+00
 -1        24 6.06184E-02-1.15448E-01 3.82290E+00
 -1        25-2.02161E-07 3.89067E-08 3.39549E-06
 -1        26-5.07457E-07-3.81518E-07 3.46604E-08
 -1        27 7.98553E-07 1.23716E-07-3.42565E-06
 -1        28-3.32918E-01 5.82356E-14 1.87455E-02
 -1        29-1.27444E-06 9.23577E-14 3.70589E-07
 -1        30 3.32919E-01 1.25970E-13-1.87459E-02
 -1        31 4.51402E-01-3.07710E-11 7.84911E+00
 -1        32-4.54207E-01-1.02169E-10-1.56496E+01
 -1        33 7.90033E-03 8.33118E-11 7.84911E+00
 -1        34 2.01863E-07-1.42037E-07-3.00223E-06
 -1        36-6.34590E-07-1.77646E-08 2.92597E-06
 -1        37 1.79316E-06-9.25739E-08-1.44303E-05
 -1        39-2.58603E-06 2.31901E-08 1.43254E-05
 -1        40 4.42946E-07 6.54546E-14-5.96419E-06
 -1        42-1.39028E-06 1.70958E-13 5.80864E-06
 -1        43 3.55361E-01-2.33329E-01-1.48523E-02
 -1        45-3.58583E-01 2.33699E-01-1.48492E-02
 -1        46-2.02160E-07-3.89067E-08 3.39550E-06
 -1        47-5.07458E-07 3.81518E-07 3.46532E-08
 -1        48 7.98553E-07-1.23716E-07-3.42564E-06
 -1        49 1.24822E-01-7.86479E-02 3.82290E+00
 -1        50-1.84767E-01-3.72246E-02-7.64039E+00
 -1        51 6.06184E-02 1.15448E-01 3.82290E+00
 -1        52 1.79316E-06 9.25738E-08-1.44303E-05
 -1        54-2.58603E-06-2.31903E-08 1.43254E-05
 -1        55 2.01863E-07 1.42037E-07-3.00222E-06
 -1        57-6.34590E-07 1.77645E-08 2.92597E-06
 -1        58 3.55361E-01 2.33329E-01-1.48523E-02
 -1        60-3.58583E-01-2.33699E-01-1.48492E-02
 -1        61-4.76452E-07 1.41313E-07 2.73309E-06
 -1        62 3.69319E-07-3.36683E-07 6.32983E-08
 -1        63 3.40209E-07 9.48061E-08-2.76222E-06
 -1        64-7.11938E-07-6.75728E-14 4.56084E-06
 -1        65 7.51630E-07 1.02799E-13 3.06132E-08
 -1        66 6.77287E-07 1.55259E-13-4.50340E-06
 -1        67 1.50502E-06-2.27634E-07-1.05067E-05
 -1        69-1.54113E-06-4.28187E-07 1.05128E-05
 -1        70 2.25088E-06 7.34685E-08-1.18811E-05
 -1        72-1.15299E-06-1.71954E-07 1.20382E-05
 -1        73 3.27706E-06 1.06399E-13-2.29571E-05
 -1        75-3.48412E-06-4.31975E-13 2.29538E-05
 -1        76-4.76451E-07-1.41314E-07 2.73311E-06
 -1        77 3.69317E-07 3.36684E-07 6.32539E-08
 -1        78 3.40210E-07-9.48061E-08-2.76220E-06
 -1        79 2.25088E-06-7.34682E-08-1.18812E-05
 -1        81-1.15299E-06 1.71953E-07 1.20382E-05
 -1        82 1.50502E-06 2.27634E-07-1.05067E-05
 -1        84-1.54114E-06 4.28187E-07 1.05128E-05
 -3
 9999
