
 displacements (vx,vy,vz) for set NALL and time  0.1000000E+01

         1  1.352000E-16 -2.498494E-17  4.970090E-16
         2  5.598820E-16 -1.501735E-16  1.454478E-15
         3 -4.206769E-17  1.691116E-17  7.798361E-16
         4 -8.240104E-17  7.188347E-17  6.600340E-16
         5  2.371390E-16 -1.149443E-16  2.657688E-16
         6  2.884836E-16 -8.996506E-17  3.534285E-16
         7 -3.046982E-17  1.881681E-18  3.405294E-16
         8 -4.409929E-17  2.034517E-17  2.572243E-16
         9  3.150692E-16 -1.562289E-16  1.105207E-15
        10  1.099374E-16 -4.798687E-17  1.082353E-15
        11 -4.875727E-17  5.997484E-17  6.959331E-16
        12  2.375534E-17  7.650137E-17  6.192341E-16
        13  2.051131E-16 -1.902187E-16  4.114030E-16
        14  3.923553E-16 -1.392158E-16  7.042956E-16
        15 -5.681595E-17  3.832472E-18  6.115353E-16
        16 -7.832178E-17  3.569765E-17  4.808478E-16
        17  2.459898E-16 -1.062271E-16  3.132751E-16
        18  8.402574E-17 -4.046015E-17  3.466729E-16
        19 -3.412951E-17  1.022351E-17  3.083915E-16
        20  6.038061E-17 -5.423302E-17  2.493903E-16
        21  9.110009E-16 -4.908278E-16  1.944083E-15
        22 -5.420992E-17 -5.091411E-17  8.937425E-16
        23  2.870735E-16  2.816981E-18  3.504860E-16
        24 -4.510543E-17 -2.509942E-17  4.037207E-16
        25  6.067195E-16 -2.091446E-16  1.399170E-15
        26  1.066011E-16 -1.210702E-16  1.327167E-15
        27 -3.798383E-17 -1.614660E-17  8.746129E-16
        28  4.668335E-16 -1.871098E-16  8.934536E-16
        29 -7.156618E-17 -2.063302E-17  7.070629E-16
        30  3.234919E-16 -5.697194E-17  4.239804E-16
        31  6.688109E-17 -3.235844E-17  3.735883E-16
        32 -3.217479E-17 -1.090673E-17  3.686791E-16
        33  0.000000E+00  0.000000E+00  0.000000E+00
        34  0.000000E+00  0.000000E+00  0.000000E+00
        35  0.000000E+00  0.000000E+00  0.000000E+00
        36  0.000000E+00  0.000000E+00  0.000000E+00
        37  1.413531E-16 -9.132508E-17  1.004669E-16
        38  1.533130E-16 -4.753257E-17  1.484680E-16
        39 -1.160257E-17 -1.757604E-18  1.319611E-16
        40 -1.710328E-17  7.678471E-18  7.951493E-17
        41  0.000000E+00  0.000000E+00  0.000000E+00
        42  0.000000E+00  0.000000E+00  0.000000E+00
        43  0.000000E+00  0.000000E+00  0.000000E+00
        44  0.000000E+00  0.000000E+00  0.000000E+00
        45  0.000000E+00  0.000000E+00  0.000000E+00
        46  0.000000E+00  0.000000E+00  0.000000E+00
        47  1.541206E-16  4.872000E-17  1.327880E-16
        48 -1.681042E-17 -1.431433E-17  1.511954E-16
        49  0.000000E+00  0.000000E+00  0.000000E+00
        50  0.000000E+00  0.000000E+00  0.000000E+00
        51  0.000000E+00  0.000000E+00  0.000000E+00
        52 -3.181453E-16  1.004605E-16  7.460490E-16
        53 -3.012195E-16  1.038361E-16  6.292836E-16
        54 -2.782028E-16  6.332708E-17  3.723771E-16
        55 -2.713678E-16  1.010624E-16  2.926999E-16
        56 -1.594394E-16  5.784437E-17  7.418336E-16
        57 -3.133407E-16  9.962292E-17  6.783975E-16
        58 -1.727044E-16  7.603968E-17  6.411469E-16
        59 -3.084973E-16  9.411355E-17  5.705077E-16
        60 -3.007490E-16  1.125401E-16  4.761915E-16
        61 -1.249551E-16  3.215769E-17  3.480745E-16
        62 -2.665773E-16  8.116565E-17  3.338563E-16
        63 -1.327799E-16  6.418895E-17  2.702847E-16
        64 -3.206205E-16  1.101839E-16  8.816729E-16
        65 -2.789295E-16  2.340930E-17  4.249086E-16
        66 -1.604646E-16  1.804342E-17  8.631451E-16
        67 -3.293191E-16  9.853166E-17  8.040412E-16
        68 -3.131598E-16  6.682119E-17  6.759101E-16
        69 -1.186967E-16  9.574814E-19  4.090882E-16
        70 -2.945157E-16  4.641324E-17  4.065704E-16
        71  0.000000E+00  0.000000E+00  0.000000E+00
        72  0.000000E+00  0.000000E+00  0.000000E+00
        73 -1.538511E-16  3.372995E-17  1.711927E-16
        74 -1.584182E-16  8.644845E-17  1.266997E-16
        75  0.000000E+00  0.000000E+00  0.000000E+00
        76  0.000000E+00  0.000000E+00  0.000000E+00
        77  0.000000E+00  0.000000E+00  0.000000E+00
        78  0.000000E+00  0.000000E+00  0.000000E+00
        79 -1.614995E-16 -2.761729E-17  1.853516E-16
        80  0.000000E+00  0.000000E+00  0.000000E+00
        81  0.000000E+00  0.000000E+00  0.000000E+00
        82  9.378349E-18  3.822477E-16  5.000000E-02
        83 -5.613999E-16  6.209842E-16  5.000000E-02
        84  2.860125E-16 -2.322617E-17  2.500000E-02
        85 -2.222614E-16  6.295403E-16  5.000000E-02
        86 -3.098650E-16  2.866021E-16  2.500000E-02
        87 -4.169299E-16  1.741218E-15  1.000000E-01
        88 -1.235286E-15  1.846183E-15  1.000000E-01
        89 -1.682682E-16  1.088681E-15  7.500000E-02
        90 -3.456437E-16  1.644210E-15  1.000000E-01
        91 -9.287276E-16  1.095421E-15  7.500000E-02
        92  1.432556E-15  2.460152E-16  5.000000E-02
        93  9.636389E-16 -1.423372E-16  2.500000E-02
        94  7.294512E-16  9.991601E-17  5.000000E-02
        95  1.998944E-15  1.833107E-15  1.000000E-01
        96  1.676393E-15  7.216585E-16  7.500000E-02
        97  7.389922E-16  1.898937E-15  1.000000E-01
