
 displacements (vx,vy,vz) for set NALL and time  0.1000000E+01

         1  0.000000E+00  0.000000E+00  0.000000E+00
         2  4.000000E-01  0.000000E+00  0.000000E+00
         3  4.000000E-01  0.000000E+00  0.000000E+00
         4  4.000707E-01  0.000000E+00  0.000000E+00
         5  4.000707E-01  0.000000E+00  0.000000E+00
         6  4.000000E-01  0.000000E+00  0.000000E+00
         7  4.000000E-01  0.000000E+00  0.000000E+00
         8  4.000707E-01  0.000000E+00  0.000000E+00
         9  4.000707E-01  0.000000E+00  0.000000E+00
        10  4.000000E-01  0.000000E+00  0.000000E+00

     E I G E N V A L U E   O U T P U T

 MODE NO    EIGENVALUE                       FREQUENCY   
                                     REAL PART            IMAGINARY PART
                           (RAD/TIME)      (CYCLES/TIME     (RAD/TIME)

      1   0.1602493E+12   0.4003115E+06   0.6371156E+05   0.0000000E+00

     P A R T I C I P A T I O N   F A C T O R S

MODE NO.   X-COMPONENT     Y-COMPONENT     Z-COMPONENT     X-ROTATION      Y-ROTATION      Z-ROTATION

      1   0.7899367E-05   0.0000000E+00   0.0000000E+00   0.0000000E+00   0.0000000E+00   0.0000000E+00

     E F F E C T I V E   M O D A L   M A S S

MODE NO.   X-COMPONENT     Y-COMPONENT     Z-COMPONENT     X-ROTATION      Y-ROTATION      Z-ROTATION

      1   0.6240000E-10   0.0000000E+00   0.0000000E+00   0.0000000E+00   0.0000000E+00   0.0000000E+00
TOTAL     0.6240000E-10   0.0000000E+00   0.0000000E+00   0.0000000E+00   0.0000000E+00   0.0000000E+00

     T O T A L   E F F E C T I V E   M A S S

MODE NO.   X-COMPONENT     Y-COMPONENT     Z-COMPONENT     X-ROTATION      Y-ROTATION      Z-ROTATION

          0.6240000E-10   0.0000000E+00   0.0000000E+00   0.0000000E+00   0.2080000E-12   0.2080000E-12


                    E I G E N V A L U E    N U M B E R     1


 displacements (vx,vy,vz) for set NALL and time  0.2000000E+01

         1  0.000000E+00  0.000000E+00  0.000000E+00
         2  1.265868E+05  0.000000E+00  0.000000E+00
         3  1.265868E+05  0.000000E+00  0.000000E+00
         4  1.265980E+05  0.000000E+00  0.000000E+00
         5  1.265980E+05  0.000000E+00  0.000000E+00
         6  1.265868E+05  0.000000E+00  0.000000E+00
         7  1.265868E+05  0.000000E+00  0.000000E+00
         8  1.265980E+05  0.000000E+00  0.000000E+00
         9  1.265980E+05  0.000000E+00  0.000000E+00
        10  1.265868E+05  0.000000E+00  0.000000E+00
