    1C
    1UUSER                                                              
    1UDATE              15.december.2018                                
    1UTIME              15:55:30                                        
    1UHOST                                                              
    1UPGM               CalculiX                                        
    1UVERSION           Version 2.15                             
    1UCOMPILETIME       Sa 15. Dez 14:32:01 CET 2018                    
    1UDIR                                                               
    1UDBN                                                               
    1UMAT    1EL                                                        
    2C                            40                                     1
 -1        38 1.00000E+00 0.00000E+00 3.00000E+00
 -1        39 1.00000E+00 0.00000E+00 3.50000E+00
 -1        40 1.00000E+00 0.00000E+00 4.00000E+00
 -1       113 5.00000E-01 0.00000E+00 3.00000E+00
 -1       114 7.50000E-01 0.00000E+00 3.00000E+00
 -1       115 5.00000E-01 0.00000E+00 3.50000E+00
 -1       117 5.00000E-01 0.00000E+00 4.00000E+00
 -1       118 7.50000E-01 0.00000E+00 4.00000E+00
 -1       141 1.00000E+00 2.50000E-01 3.00000E+00
 -1       142 1.00000E+00 5.00000E-01 3.00000E+00
 -1       144 1.00000E+00 5.00000E-01 3.50000E+00
 -1       145 1.00000E+00 2.50000E-01 4.00000E+00
 -1       146 1.00000E+00 5.00000E-01 4.00000E+00
 -1       232 5.00000E-01 2.50000E-01 3.00000E+00
 -1       234 5.00000E-01 5.00000E-01 3.00000E+00
 -1       235 7.50000E-01 5.00000E-01 3.00000E+00
 -1       237 5.00000E-01 5.00000E-01 3.50000E+00
 -1       238 5.00000E-01 2.50000E-01 4.00000E+00
 -1       240 5.00000E-01 5.00000E-01 4.00000E+00
 -1       241 7.50000E-01 5.00000E-01 4.00000E+00
 -1       259 1.00000E+00 0.00000E+00 4.00000E+00
 -1       260 1.00000E+00 0.00000E+00 4.50000E+00
 -1       261 1.00000E+00 0.00000E+00 5.00000E+00
 -1       297 5.00000E-01 0.00000E+00 4.00000E+00
 -1       298 7.50000E-01 0.00000E+00 4.00000E+00
 -1       299 5.00000E-01 0.00000E+00 4.50000E+00
 -1       301 5.00000E-01 0.00000E+00 5.00000E+00
 -1       302 7.50000E-01 0.00000E+00 5.00000E+00
 -1       312 1.00000E+00 2.50000E-01 4.00000E+00
 -1       313 1.00000E+00 5.00000E-01 4.00000E+00
 -1       315 1.00000E+00 5.00000E-01 4.50000E+00
 -1       316 1.00000E+00 2.50000E-01 5.00000E+00
 -1       317 1.00000E+00 5.00000E-01 5.00000E+00
 -1       360 5.00000E-01 2.50000E-01 4.00000E+00
 -1       362 5.00000E-01 5.00000E-01 4.00000E+00
 -1       363 7.50000E-01 5.00000E-01 4.00000E+00
 -1       365 5.00000E-01 5.00000E-01 4.50000E+00
 -1       366 5.00000E-01 2.50000E-01 5.00000E+00
 -1       368 5.00000E-01 5.00000E-01 5.00000E+00
 -1       369 7.50000E-01 5.00000E-01 5.00000E+00
 -3
    3C                             2                                     1
 -1        14    4    0    1
 -2       113        38       142       234       117        40       146       240       114       141
 -2       235       232       115        39       144       237       118       145       241       238
 -1        18    4    0    1
 -2       297       259       313       362       301       261       317       368       298       312
 -2       363       360       299       260       315       365       302       316       369       366
 -3
    1PSTEP                         1           1           1          
  100CL  101 5.00000E-01          40                     0    1           1
 -4  DISP        4    1
 -5  D1          1    2    1    0
 -5  D2          1    2    2    0
 -5  D3          1    2    3    0
 -5  ALL         1    2    0    0    1ALL
 -1        38 3.83009E-04-3.83009E-04-7.42215E-04
 -1        39 3.48423E-04-3.48423E-04-9.23890E-04
 -1        40 4.89985E-04-4.89985E-04-1.16493E-03
 -1       113-8.17036E-17-3.90748E-04-7.48585E-04
 -1       114 1.89778E-04-3.87221E-04-7.50925E-04
 -1       115-9.10664E-17-3.37940E-04-8.94135E-04
 -1       117-9.60558E-17-4.93293E-04-1.08651E-03
 -1       118 2.44859E-04-4.91671E-04-1.10150E-03
 -1       141 3.87221E-04-1.89778E-04-7.50925E-04
 -1       142 3.90748E-04-5.45259E-17-7.48585E-04
 -1       144 3.37940E-04-6.24626E-17-8.94135E-04
 -1       145 4.91671E-04-2.44859E-04-1.10150E-03
 -1       146 4.93293E-04-6.59332E-17-1.08651E-03
 -1       232-8.02408E-17-1.94134E-04-7.59405E-04
 -1       234-7.92036E-17-5.26524E-17-7.56860E-04
 -1       235 1.94134E-04-5.34137E-17-7.59405E-04
 -1       237-8.98244E-17-6.14521E-17-8.66005E-04
 -1       238-9.48377E-17-2.46580E-04-1.01814E-03
 -1       240-9.46536E-17-6.53574E-17-1.00138E-03
 -1       241 2.46580E-04-6.52368E-17-1.01814E-03
 -1       259 4.89985E-04-4.89985E-04-1.16493E-03
 -1       260 6.37460E-04-6.37460E-04-9.53645E-04
 -1       261 5.93130E-04-5.93130E-04-8.03100E-04
 -1       297-9.60558E-17-4.93293E-04-1.08651E-03
 -1       298 2.44859E-04-4.91671E-04-1.10150E-03
 -1       299-9.22564E-17-6.44730E-04-9.24135E-04
 -1       301-8.26526E-17-5.96600E-04-8.06170E-04
 -1       302 2.98670E-04-5.94365E-04-8.10705E-04
 -1       312 4.91671E-04-2.44859E-04-1.10150E-03
 -1       313 4.93293E-04-6.59332E-17-1.08651E-03
 -1       315 6.44730E-04-6.33126E-17-9.24135E-04
 -1       316 5.94365E-04-2.98670E-04-8.10705E-04
 -1       317 5.96600E-04-5.66554E-17-8.06170E-04
 -1       360-9.48377E-17-2.46580E-04-1.01814E-03
 -1       362-9.46536E-17-6.53574E-17-1.00138E-03
 -1       363 2.46580E-04-6.52368E-17-1.01814E-03
 -1       365-9.26921E-17-6.29674E-17-8.95270E-04
 -1       366-8.36161E-17-2.99683E-04-8.18135E-04
 -1       368-8.32811E-17-5.85029E-17-8.15980E-04
 -1       369 2.99683E-04-5.76244E-17-8.18135E-04
 -3
    1PSTEP                         2           1           1          
  100CL  101 5.00000E-01          40                     0    1           1
 -4  NDTEMP      1    1
 -5  T           1    1    0    0
 -1        38 3.50000E+02
 -1        39 3.50000E+02
 -1        40 3.50000E+02
 -1       113 3.50000E+02
 -1       114 3.50000E+02
 -1       115 3.50000E+02
 -1       117 3.50000E+02
 -1       118 3.50000E+02
 -1       141 3.50000E+02
 -1       142 3.50000E+02
 -1       144 3.50000E+02
 -1       145 3.50000E+02
 -1       146 3.50000E+02
 -1       232 3.50000E+02
 -1       234 3.50000E+02
 -1       235 3.50000E+02
 -1       237 3.50000E+02
 -1       238 3.50000E+02
 -1       240 3.50000E+02
 -1       241 3.50000E+02
 -1       259 4.00000E+02
 -1       260 4.00000E+02
 -1       261 4.00000E+02
 -1       297 4.00000E+02
 -1       298 4.00000E+02
 -1       299 4.00000E+02
 -1       301 4.00000E+02
 -1       302 4.00000E+02
 -1       312 4.00000E+02
 -1       313 4.00000E+02
 -1       315 4.00000E+02
 -1       316 4.00000E+02
 -1       317 4.00000E+02
 -1       360 4.00000E+02
 -1       362 4.00000E+02
 -1       363 4.00000E+02
 -1       365 4.00000E+02
 -1       366 4.00000E+02
 -1       368 4.00000E+02
 -1       369 4.00000E+02
 -3
    1PSTEP                         3           1           1          
  100CL  101 5.00000E-01          40                     0    1           1
 -4  STRESS      6    1
 -5  SXX         1    4    1    1
 -5  SYY         1    4    2    2
 -5  SZZ         1    4    3    3
 -5  SXY         1    4    1    2
 -5  SYZ         1    4    2    3
 -5  SZX         1    4    3    1
 -1        38 1.57504E+01 1.57504E+01-1.59073E+02 2.93730E+00 1.51785E+01-1.51785E+01
 -1        39-2.91854E+01-2.91854E+01-2.10875E+02-3.14821E+00 2.21296E+00-2.21296E+00
 -1        40 6.83798E+01 6.83798E+01-1.77184E+02 1.09118E+00-8.71263E+00 8.71263E+00
 -1       113 1.65603E+01 2.29112E+01-1.44188E+02 1.02879E+00 1.96463E+01-2.53745E+00
 -1       114 1.98440E+01 2.31303E+01-1.43173E+02 2.06161E+00 1.72523E+01-8.73128E+00
 -1       115-2.59329E+01-2.72745E+01-1.91587E+02-1.81548E+00 2.44320E+00 1.23158E+00
 -1       117 8.17891E+01 8.31387E+01-1.45767E+02 5.12828E-01-1.14211E+01 2.97864E+00
 -1       118 7.86895E+01 7.93771E+01-1.53108E+02 8.12412E-01-9.78841E+00 5.97625E+00
 -1       141 2.31303E+01 1.98440E+01-1.43173E+02 2.06161E+00 8.73128E+00-1.72523E+01
 -1       142 2.29112E+01 1.65603E+01-1.44188E+02 1.02879E+00 2.53745E+00-1.96463E+01
 -1       144-2.72745E+01-2.59329E+01-1.91587E+02-1.81548E+00-1.23158E+00-2.44320E+00
 -1       145 7.93771E+01 7.86895E+01-1.53108E+02 8.12412E-01-5.97625E+00 9.78841E+00
 -1       146 8.31387E+01 8.17891E+01-1.45767E+02 5.12828E-01-2.97864E+00 1.14211E+01
 -1       232 2.53880E+01 2.84523E+01-1.27628E+02 5.93062E-01 1.12197E+01-2.57078E+00
 -1       234 2.59533E+01 2.59533E+01-1.29531E+02-2.09920E-05 2.97735E+00-2.97735E+00
 -1       235 2.84523E+01 2.53880E+01-1.27628E+02 5.93062E-01 2.57078E+00-1.12197E+01
 -1       237-2.11878E+01-2.11878E+01-1.68790E+02-7.05334E-05-1.63033E+00 1.63033E+00
 -1       238 9.48200E+01 9.54813E+01-1.17309E+02 2.67115E-01-7.26734E+00 2.69365E+00
 -1       240 9.99539E+01 9.99539E+01-1.07133E+02-1.10570E-04-2.91841E+00 2.91841E+00
 -1       241 9.54813E+01 9.48200E+01-1.17309E+02 2.67115E-01-2.69365E+00 7.26734E+00
 -1       259-6.99654E+01-6.99654E+01-1.50211E+02 1.08798E+00-1.09625E+01 1.09625E+01
 -1       260 3.08531E+01 3.08531E+01-1.15237E+02 2.04799E+00 2.30594E+00-2.30594E+00
 -1       261-2.33091E+01-2.33091E+01-1.73136E+02 4.64433E-01 1.81938E+01-1.81938E+01
 -1       297-8.37107E+01-8.23635E+01-1.81981E+02 5.12662E-01-1.01186E+01 2.97608E+00
 -1       298-8.05086E+01-7.98220E+01-1.74656E+02 8.11019E-01-1.02406E+01 7.14700E+00
 -1       299 2.75232E+01 2.77482E+01-1.34234E+02 1.32753E+00 2.38004E+00 1.09619E+00
 -1       301-1.81701E+01-2.15493E+01-1.81289E+02 8.83571E-01 1.77028E+01-3.42353E+00
 -1       302-2.45310E+01-2.63819E+01-1.85887E+02 5.57459E-01 1.78295E+01-1.06266E+01
 -1       312-7.98220E+01-8.05086E+01-1.74656E+02 8.11019E-01-7.14700E+00 1.02406E+01
 -1       313-8.23635E+01-8.37107E+01-1.81981E+02 5.12662E-01-2.97608E+00 1.01186E+01
 -1       315 2.77482E+01 2.75232E+01-1.34234E+02 1.32753E+00-1.09619E+00-2.38004E+00
 -1       316-2.63819E+01-2.45310E+01-1.85887E+02 5.57459E-01 1.06266E+01-1.78295E+01
 -1       317-2.15493E+01-1.81701E+01-1.81289E+02 8.83571E-01 3.42353E+00-1.77028E+01
 -1       360-9.46331E+01-9.39728E+01-2.09265E+02 2.67125E-01-6.63010E+00 2.68975E+00
 -1       362-9.76162E+01-9.76162E+01-2.17983E+02-1.50981E-04-2.91396E+00 2.91396E+00
 -1       363-9.39728E+01-9.46331E+01-2.09265E+02 2.67125E-01-2.68975E+00 6.63010E+00
 -1       365 2.06728E+01 2.06728E+01-1.58283E+02 1.23438E-06-1.39051E+00 1.39051E+00
 -1       366-2.45513E+01-2.60796E+01-1.97703E+02 3.25168E-01 1.02199E+01-3.03939E+00
 -1       368-2.24048E+01-2.24048E+01-1.95323E+02-6.50967E-05 2.97479E+00-2.97479E+00
 -1       369-2.60796E+01-2.45513E+01-1.97703E+02 3.25168E-01 3.03939E+00-1.02199E+01
 -3
    1PSTEP                         4           2           1          
  100CL  102 1.000000000          40                     0    2           1
 -4  DISP        4    1
 -5  D1          1    2    1    0
 -5  D2          1    2    2    0
 -5  D3          1    2    3    0
 -5  ALL         1    2    0    0    1ALL
 -1        38 7.66018E-04-7.66018E-04-1.48443E-03
 -1        39 6.96847E-04-6.96847E-04-1.84778E-03
 -1        40 9.79969E-04-9.79969E-04-2.32987E-03
 -1       113-1.63407E-16-7.81496E-04-1.49717E-03
 -1       114 3.79556E-04-7.74442E-04-1.50185E-03
 -1       115-1.82133E-16-6.75881E-04-1.78827E-03
 -1       117-1.92112E-16-9.86586E-04-2.17301E-03
 -1       118 4.89719E-04-9.83341E-04-2.20300E-03
 -1       141 7.74442E-04-3.79556E-04-1.50185E-03
 -1       142 7.81496E-04-1.09052E-16-1.49717E-03
 -1       144 6.75881E-04-1.24925E-16-1.78827E-03
 -1       145 9.83341E-04-4.89719E-04-2.20300E-03
 -1       146 9.86586E-04-1.31866E-16-2.17301E-03
 -1       232-1.60482E-16-3.88269E-04-1.51881E-03
 -1       234-1.58407E-16-1.05305E-16-1.51372E-03
 -1       235 3.88269E-04-1.06827E-16-1.51881E-03
 -1       237-1.79649E-16-1.22904E-16-1.73201E-03
 -1       238-1.89675E-16-4.93161E-04-2.03628E-03
 -1       240-1.89307E-16-1.30715E-16-2.00275E-03
 -1       241 4.93161E-04-1.30474E-16-2.03628E-03
 -1       259 9.79969E-04-9.79969E-04-2.32987E-03
 -1       260 1.27492E-03-1.27492E-03-1.90729E-03
 -1       261 1.18626E-03-1.18626E-03-1.60620E-03
 -1       297-1.92112E-16-9.86586E-04-2.17301E-03
 -1       298 4.89719E-04-9.83341E-04-2.20300E-03
 -1       299-1.84513E-16-1.28946E-03-1.84827E-03
 -1       301-1.65305E-16-1.19320E-03-1.61234E-03
 -1       302 5.97339E-04-1.18873E-03-1.62141E-03
 -1       312 9.83341E-04-4.89719E-04-2.20300E-03
 -1       313 9.86586E-04-1.31866E-16-2.17301E-03
 -1       315 1.28946E-03-1.26625E-16-1.84827E-03
 -1       316 1.18873E-03-5.97339E-04-1.62141E-03
 -1       317 1.19320E-03-1.13311E-16-1.61234E-03
 -1       360-1.89675E-16-4.93161E-04-2.03628E-03
 -1       362-1.89307E-16-1.30715E-16-2.00275E-03
 -1       363 4.93161E-04-1.30474E-16-2.03628E-03
 -1       365-1.85384E-16-1.25935E-16-1.79054E-03
 -1       366-1.67232E-16-5.99366E-04-1.63627E-03
 -1       368-1.66562E-16-1.17006E-16-1.63196E-03
 -1       369 5.99366E-04-1.15249E-16-1.63627E-03
 -3
    1PSTEP                         5           2           1          
  100CL  102 1.000000000          40                     0    2           1
 -4  NDTEMP      1    1
 -5  T           1    1    0    0
 -1        38 4.00000E+02
 -1        39 4.00000E+02
 -1        40 4.00000E+02
 -1       113 4.00000E+02
 -1       114 4.00000E+02
 -1       115 4.00000E+02
 -1       117 4.00000E+02
 -1       118 4.00000E+02
 -1       141 4.00000E+02
 -1       142 4.00000E+02
 -1       144 4.00000E+02
 -1       145 4.00000E+02
 -1       146 4.00000E+02
 -1       232 4.00000E+02
 -1       234 4.00000E+02
 -1       235 4.00000E+02
 -1       237 4.00000E+02
 -1       238 4.00000E+02
 -1       240 4.00000E+02
 -1       241 4.00000E+02
 -1       259 5.00000E+02
 -1       260 5.00000E+02
 -1       261 5.00000E+02
 -1       297 5.00000E+02
 -1       298 5.00000E+02
 -1       299 5.00000E+02
 -1       301 5.00000E+02
 -1       302 5.00000E+02
 -1       312 5.00000E+02
 -1       313 5.00000E+02
 -1       315 5.00000E+02
 -1       316 5.00000E+02
 -1       317 5.00000E+02
 -1       360 5.00000E+02
 -1       362 5.00000E+02
 -1       363 5.00000E+02
 -1       365 5.00000E+02
 -1       366 5.00000E+02
 -1       368 5.00000E+02
 -1       369 5.00000E+02
 -3
    1PSTEP                         6           2           1          
  100CL  102 1.000000000          40                     0    2           1
 -4  STRESS      6    1
 -5  SXX         1    4    1    1
 -5  SYY         1    4    2    2
 -5  SZZ         1    4    3    3
 -5  SXY         1    4    1    2
 -5  SYZ         1    4    2    3
 -5  SZX         1    4    3    1
 -1        38 3.17969E+01 3.17969E+01-3.17361E+02 5.86338E+00 3.02838E+01-3.02838E+01
 -1        39-5.81576E+01-5.81576E+01-4.20793E+02-6.30275E+00 4.43934E+00-4.43934E+00
 -1        40 1.37349E+02 1.37349E+02-3.53043E+02 2.14483E+00-1.72999E+01 1.72999E+01
 -1       113 3.33826E+01 4.61196E+01-2.87684E+02 2.05743E+00 3.92079E+01-5.06797E+00
 -1       114 3.99692E+01 4.65597E+01-2.85647E+02 4.11742E+00 3.44293E+01-1.74264E+01
 -1       115-5.16689E+01-5.43515E+01-3.82362E+02-3.63320E+00 4.89665E+00 2.45970E+00
 -1       117 1.64083E+02 1.66830E+02-2.90468E+02 1.02342E+00-2.27131E+01 5.95380E+00
 -1       118 1.57912E+02 1.59316E+02-3.05090E+02 1.60429E+00-1.94535E+01 1.18920E+01
 -1       141 4.65597E+01 3.99692E+01-2.85647E+02 4.11742E+00 1.74264E+01-3.44293E+01
 -1       142 4.61196E+01 3.33826E+01-2.87684E+02 2.05743E+00 5.06797E+00-3.92079E+01
 -1       144-5.43515E+01-5.16689E+01-3.82362E+02-3.63320E+00-2.45970E+00-4.89665E+00
 -1       145 1.59316E+02 1.57912E+02-3.05090E+02 1.60429E+00-1.18920E+01 1.94535E+01
 -1       146 1.66830E+02 1.64083E+02-2.90468E+02 1.02342E+00-5.95380E+00 2.27131E+01
 -1       232 5.10333E+01 5.71782E+01-2.54653E+02 1.18613E+00 2.23983E+01-5.13484E+00
 -1       234 5.21540E+01 5.21540E+01-2.58467E+02-1.38651E-04 5.94711E+00-5.94711E+00
 -1       235 5.71782E+01 5.10333E+01-2.54653E+02 1.18613E+00 5.13484E+00-2.23983E+01
 -1       237-4.21891E+01-4.21891E+01-3.36911E+02-1.95378E-04-3.25670E+00 3.25670E+00
 -1       238 1.90098E+02 1.91438E+02-2.33777E+02 5.33021E-01-1.44752E+01 5.38580E+00
 -1       240 2.00342E+02 2.00342E+02-2.13506E+02-5.04123E-04-5.83556E+00 5.83556E+00
 -1       241 1.91438E+02 1.90098E+02-2.33777E+02 5.33021E-01-5.38580E+00 1.44752E+01
 -1       259-1.39347E+02-1.39347E+02-2.99546E+02 2.13227E+00-2.18587E+01 2.18587E+01
 -1       260 6.23635E+01 6.23635E+01-2.29534E+02 4.09946E+00 4.62394E+00-4.62394E+00
 -1       261-4.60100E+01-4.60100E+01-3.45169E+02 9.08031E-01 3.63060E+01-3.63060E+01
 -1       297-1.66934E+02-1.64198E+02-3.63030E+02 1.02287E+00-2.01562E+01 5.94353E+00
 -1       298-1.60497E+02-1.59097E+02-3.48391E+02 1.59863E+00-2.04041E+01 1.42508E+01
 -1       299 5.57159E+01 5.61686E+01-2.67425E+02 2.65869E+00 4.77353E+00 2.19120E+00
 -1       301-3.57420E+01-4.24875E+01-3.61418E+02 1.76713E+00 3.53172E+01-6.84182E+00
 -1       302-4.84578E+01-5.21526E+01-3.70595E+02 1.10436E+00 3.55703E+01-2.12067E+01
 -1       312-1.59097E+02-1.60497E+02-3.48391E+02 1.59863E+00-1.42508E+01 2.04041E+01
 -1       313-1.64198E+02-1.66934E+02-3.63030E+02 1.02287E+00-5.94353E+00 2.01562E+01
 -1       315 5.61686E+01 5.57159E+01-2.67425E+02 2.65869E+00-2.19120E+00-4.77353E+00
 -1       316-5.21526E+01-4.84578E+01-3.70595E+02 1.10436E+00 2.12067E+01-3.55703E+01
 -1       317-4.24875E+01-3.57420E+01-3.61418E+02 1.76713E+00 6.84182E+00-3.53172E+01
 -1       360-1.88825E+02-1.87489E+02-4.17530E+02 5.32929E-01-1.32084E+01 5.37022E+00
 -1       362-1.94814E+02-1.94814E+02-4.34947E+02-5.24324E-04-5.81779E+00 5.81779E+00
 -1       363-1.87489E+02-1.88825E+02-4.17530E+02 5.32929E-01-5.37022E+00 1.32084E+01
 -1       365 4.20265E+01 4.20265E+01-3.15385E+02-7.95783E-05-2.77880E+00 2.77880E+00
 -1       366-4.85084E+01-5.15587E+01-3.94154E+02 6.50086E-01 2.03893E+01-6.07400E+00
 -1       368-4.42228E+01-4.42228E+01-3.89413E+02-1.84016E-04 5.94508E+00-5.94508E+00
 -1       369-5.15587E+01-4.85084E+01-3.94154E+02 6.50086E-01 6.07400E+00-2.03893E+01
 -3
 9999
