    1C
    1UUSER                                                              
    1UDATE              15.december.2018                                
    1UTIME              15:55:30                                        
    1UHOST                                                              
    1UPGM               CalculiX                                        
    1UVERSION           Version 2.15                             
    1UCOMPILETIME       Sa 15. Dez 14:32:01 CET 2018                    
    1UDIR                                                               
    1UDBN                                                               
    1UMAT    1EL                                                        
    2C                            40                                     1
 -1        38 1.00000E+00 0.00000E+00 3.00000E+00
 -1        39 1.00000E+00 0.00000E+00 3.50000E+00
 -1        40 1.00000E+00 0.00000E+00 4.00000E+00
 -1       113 5.00000E-01 0.00000E+00 3.00000E+00
 -1       114 7.50000E-01 0.00000E+00 3.00000E+00
 -1       115 5.00000E-01 0.00000E+00 3.50000E+00
 -1       117 5.00000E-01 0.00000E+00 4.00000E+00
 -1       118 7.50000E-01 0.00000E+00 4.00000E+00
 -1       141 1.00000E+00 2.50000E-01 3.00000E+00
 -1       142 1.00000E+00 5.00000E-01 3.00000E+00
 -1       144 1.00000E+00 5.00000E-01 3.50000E+00
 -1       145 1.00000E+00 2.50000E-01 4.00000E+00
 -1       146 1.00000E+00 5.00000E-01 4.00000E+00
 -1       232 5.00000E-01 2.50000E-01 3.00000E+00
 -1       234 5.00000E-01 5.00000E-01 3.00000E+00
 -1       235 7.50000E-01 5.00000E-01 3.00000E+00
 -1       237 5.00000E-01 5.00000E-01 3.50000E+00
 -1       238 5.00000E-01 2.50000E-01 4.00000E+00
 -1       240 5.00000E-01 5.00000E-01 4.00000E+00
 -1       241 7.50000E-01 5.00000E-01 4.00000E+00
 -1       259 1.00000E+00 0.00000E+00 4.00000E+00
 -1       260 1.00000E+00 0.00000E+00 4.50000E+00
 -1       261 1.00000E+00 0.00000E+00 5.00000E+00
 -1       297 5.00000E-01 0.00000E+00 4.00000E+00
 -1       298 7.50000E-01 0.00000E+00 4.00000E+00
 -1       299 5.00000E-01 0.00000E+00 4.50000E+00
 -1       301 5.00000E-01 0.00000E+00 5.00000E+00
 -1       302 7.50000E-01 0.00000E+00 5.00000E+00
 -1       312 1.00000E+00 2.50000E-01 4.00000E+00
 -1       313 1.00000E+00 5.00000E-01 4.00000E+00
 -1       315 1.00000E+00 5.00000E-01 4.50000E+00
 -1       316 1.00000E+00 2.50000E-01 5.00000E+00
 -1       317 1.00000E+00 5.00000E-01 5.00000E+00
 -1       360 5.00000E-01 2.50000E-01 4.00000E+00
 -1       362 5.00000E-01 5.00000E-01 4.00000E+00
 -1       363 7.50000E-01 5.00000E-01 4.00000E+00
 -1       365 5.00000E-01 5.00000E-01 4.50000E+00
 -1       366 5.00000E-01 2.50000E-01 5.00000E+00
 -1       368 5.00000E-01 5.00000E-01 5.00000E+00
 -1       369 7.50000E-01 5.00000E-01 5.00000E+00
 -3
    3C                             2                                     1
 -1        14    4    0    1
 -2       113        38       142       234       117        40       146       240       114       141
 -2       235       232       115        39       144       237       118       145       241       238
 -1        18    4    0    1
 -2       297       259       313       362       301       261       317       368       298       312
 -2       363       360       299       260       315       365       302       316       369       366
 -3
    1PSTEP                         1           1           1          
  100CL  101 1.000000000          40                     0    1           1
 -4  DISP        4    1
 -5  D1          1    2    1    0
 -5  D2          1    2    2    0
 -5  D3          1    2    3    0
 -5  ALL         1    2    0    0    1ALL
 -1        38 7.66018E-04-7.66018E-04-1.48443E-03
 -1        39 6.96847E-04-6.96847E-04-1.84778E-03
 -1        40 9.79969E-04-9.79969E-04-2.32987E-03
 -1       113-1.63407E-16-7.81496E-04-1.49717E-03
 -1       114 3.79556E-04-7.74442E-04-1.50185E-03
 -1       115-1.82133E-16-6.75881E-04-1.78827E-03
 -1       117-1.92112E-16-9.86586E-04-2.17301E-03
 -1       118 4.89719E-04-9.83341E-04-2.20300E-03
 -1       141 7.74442E-04-3.79556E-04-1.50185E-03
 -1       142 7.81496E-04-1.09052E-16-1.49717E-03
 -1       144 6.75881E-04-1.24925E-16-1.78827E-03
 -1       145 9.83341E-04-4.89719E-04-2.20300E-03
 -1       146 9.86586E-04-1.31866E-16-2.17301E-03
 -1       232-1.60482E-16-3.88269E-04-1.51881E-03
 -1       234-1.58407E-16-1.05305E-16-1.51372E-03
 -1       235 3.88269E-04-1.06827E-16-1.51881E-03
 -1       237-1.79649E-16-1.22904E-16-1.73201E-03
 -1       238-1.89675E-16-4.93161E-04-2.03628E-03
 -1       240-1.89307E-16-1.30715E-16-2.00275E-03
 -1       241 4.93161E-04-1.30474E-16-2.03628E-03
 -1       259 9.79969E-04-9.79969E-04-2.32987E-03
 -1       260 1.27492E-03-1.27492E-03-1.90729E-03
 -1       261 1.18626E-03-1.18626E-03-1.60620E-03
 -1       297-1.92112E-16-9.86586E-04-2.17301E-03
 -1       298 4.89719E-04-9.83341E-04-2.20300E-03
 -1       299-1.84513E-16-1.28946E-03-1.84827E-03
 -1       301-1.65305E-16-1.19320E-03-1.61234E-03
 -1       302 5.97339E-04-1.18873E-03-1.62141E-03
 -1       312 9.83341E-04-4.89719E-04-2.20300E-03
 -1       313 9.86586E-04-1.31866E-16-2.17301E-03
 -1       315 1.28946E-03-1.26625E-16-1.84827E-03
 -1       316 1.18873E-03-5.97339E-04-1.62141E-03
 -1       317 1.19320E-03-1.13311E-16-1.61234E-03
 -1       360-1.89675E-16-4.93161E-04-2.03628E-03
 -1       362-1.89307E-16-1.30715E-16-2.00275E-03
 -1       363 4.93161E-04-1.30474E-16-2.03628E-03
 -1       365-1.85384E-16-1.25935E-16-1.79054E-03
 -1       366-1.67232E-16-5.99366E-04-1.63627E-03
 -1       368-1.66562E-16-1.17006E-16-1.63196E-03
 -1       369 5.99366E-04-1.15249E-16-1.63627E-03
 -3
    1PSTEP                         2           1           1          
  100CL  101 1.000000000          40                     0    1           1
 -4  NDTEMP      1    1
 -5  T           1    1    0    0
 -1        38 4.00000E+02
 -1        39 4.00000E+02
 -1        40 4.00000E+02
 -1       113 4.00000E+02
 -1       114 4.00000E+02
 -1       115 4.00000E+02
 -1       117 4.00000E+02
 -1       118 4.00000E+02
 -1       141 4.00000E+02
 -1       142 4.00000E+02
 -1       144 4.00000E+02
 -1       145 4.00000E+02
 -1       146 4.00000E+02
 -1       232 4.00000E+02
 -1       234 4.00000E+02
 -1       235 4.00000E+02
 -1       237 4.00000E+02
 -1       238 4.00000E+02
 -1       240 4.00000E+02
 -1       241 4.00000E+02
 -1       259 5.00000E+02
 -1       260 5.00000E+02
 -1       261 5.00000E+02
 -1       297 5.00000E+02
 -1       298 5.00000E+02
 -1       299 5.00000E+02
 -1       301 5.00000E+02
 -1       302 5.00000E+02
 -1       312 5.00000E+02
 -1       313 5.00000E+02
 -1       315 5.00000E+02
 -1       316 5.00000E+02
 -1       317 5.00000E+02
 -1       360 5.00000E+02
 -1       362 5.00000E+02
 -1       363 5.00000E+02
 -1       365 5.00000E+02
 -1       366 5.00000E+02
 -1       368 5.00000E+02
 -1       369 5.00000E+02
 -3
    1PSTEP                         3           1           1          
  100CL  101 1.000000000          40                     0    1           1
 -4  STRESS      6    1
 -5  SXX         1    4    1    1
 -5  SYY         1    4    2    2
 -5  SZZ         1    4    3    3
 -5  SXY         1    4    1    2
 -5  SYZ         1    4    2    3
 -5  SZX         1    4    3    1
 -1        38 3.12050E+01 3.12050E+01-3.18935E+02 5.88585E+00 3.04303E+01-3.04303E+01
 -1        39-5.85838E+01-5.85838E+01-4.22710E+02-6.29010E+00 4.41242E+00-4.41242E+00
 -1        40 1.36171E+02 1.36171E+02-3.55698E+02 2.21988E+00-1.75512E+01 1.75512E+01
 -1       113 3.28589E+01 4.55255E+01-2.89069E+02 2.05773E+00 3.93775E+01-5.08187E+00
 -1       114 3.94071E+01 4.59617E+01-2.87048E+02 4.12902E+00 3.45803E+01-1.74988E+01
 -1       115-5.20627E+01-5.47465E+01-3.83986E+02-3.62874E+00 4.87611E+00 2.46663E+00
 -1       117 1.63073E+02 1.65725E+02-2.92603E+02 1.02790E+00-2.29718E+01 5.96082E+00
 -1       118 1.56847E+02 1.58193E+02-3.07346E+02 1.64535E+00-1.97006E+01 1.20133E+01
 -1       141 4.59617E+01 3.94071E+01-2.87048E+02 4.12902E+00 1.74988E+01-3.45803E+01
 -1       142 4.55255E+01 3.28589E+01-2.89069E+02 2.05773E+00 5.08187E+00-3.93775E+01
 -1       144-5.47465E+01-5.20627E+01-3.83986E+02-3.62874E+00-2.46663E+00-4.87611E+00
 -1       145 1.58193E+02 1.56847E+02-3.07346E+02 1.64535E+00-1.20133E+01 1.97006E+01
 -1       146 1.65725E+02 1.63073E+02-2.92603E+02 1.02790E+00-5.96082E+00 2.29718E+01
 -1       232 5.05189E+01 5.66309E+01-2.55861E+02 1.18612E+00 2.24805E+01-5.14829E+00
 -1       234 5.16593E+01 5.16593E+01-2.59658E+02 5.40879E-05 5.96232E+00-5.96232E+00
 -1       235 5.66309E+01 5.05189E+01-2.55861E+02 1.18612E+00 5.14829E+00-2.24805E+01
 -1       237-4.25621E+01-4.25621E+01-3.38250E+02-8.64586E-05-3.26465E+00 3.26465E+00
 -1       238 1.89182E+02 1.90487E+02-2.35463E+02 5.35441E-01-1.45943E+01 5.38882E+00
 -1       240 1.99474E+02 1.99474E+02-2.15027E+02 6.12728E-05-5.83812E+00 5.83812E+00
 -1       241 1.90487E+02 1.89182E+02-2.35463E+02 5.35441E-01-5.38882E+00 1.45943E+01
 -1       259-1.40515E+02-1.40515E+02-3.01299E+02 2.21978E+00-2.19915E+01 2.19915E+01
 -1       260 6.10485E+01 6.10485E+01-2.31416E+02 4.09253E+00 4.59980E+00-4.59980E+00
 -1       261-4.72269E+01-4.72269E+01-3.47379E+02 9.49763E-01 3.64699E+01-3.64699E+01
 -1       297-1.67909E+02-1.65257E+02-3.64896E+02 1.02779E+00-2.03187E+01 5.96084E+00
 -1       298-1.61538E+02-1.60191E+02-3.50238E+02 1.64551E+00-2.05585E+01 1.43374E+01
 -1       299 5.43764E+01 5.48240E+01-2.69515E+02 2.65144E+00 4.74661E+00 2.19360E+00
 -1       301-3.69384E+01-4.37101E+01-3.63741E+02 1.76717E+00 3.54945E+01-6.85237E+00
 -1       302-4.96663E+01-5.33752E+01-3.72958E+02 1.12551E+00 3.57484E+01-2.12999E+01
 -1       312-1.60191E+02-1.61538E+02-3.50238E+02 1.64551E+00-1.43374E+01 2.05585E+01
 -1       313-1.65257E+02-1.67909E+02-3.64896E+02 1.02779E+00-5.96084E+00 2.03187E+01
 -1       315 5.48240E+01 5.43764E+01-2.69515E+02 2.65144E+00-2.19360E+00-4.74661E+00
 -1       316-5.33752E+01-4.96663E+01-3.72958E+02 1.12551E+00 2.12999E+01-3.57484E+01
 -1       317-4.37101E+01-3.69384E+01-3.63741E+02 1.76717E+00 6.85237E+00-3.54945E+01
 -1       360-1.89708E+02-1.88403E+02-4.19535E+02 5.35579E-01-1.33123E+01 5.38881E+00
 -1       362-1.95651E+02-1.95651E+02-4.36987E+02-7.99764E-05-5.83811E+00 5.83811E+00
 -1       363-1.88403E+02-1.89708E+02-4.19535E+02 5.35579E-01-5.38881E+00 1.33123E+01
 -1       365 4.06645E+01 4.06645E+01-3.17752E+02 8.48280E-05-2.78327E+00 2.78327E+00
 -1       366-4.96970E+01-5.27598E+01-3.96664E+02 6.50594E-01 2.04904E+01-6.08361E+00
 -1       368-4.53967E+01-4.53967E+01-3.91884E+02-7.70759E-05 5.95415E+00-5.95415E+00
 -1       369-5.27598E+01-4.96970E+01-3.96664E+02 6.50594E-01 6.08361E+00-2.04904E+01
 -3
 9999
