    1C
    1UModel: beam     Date: 10-Mar-1998                                 
    1UUSER                                                              
    1UDATE              15.december.2018                                
    1UTIME              15:55:31                                        
    1UHOST                                                              
    1UPGM               CalculiX                                        
    1UVERSION           Version 2.15                             
    1UCOMPILETIME       Sa 15. Dez 14:32:01 CET 2018                    
    1UDIR                                                               
    1UDBN                                                               
    1UMAT    1EL                                                        
    2C                            16                                     1
 -1         1 0.00000E+00 0.00000E+00 0.00000E+00
 -1         2 1.00000E+00 0.00000E+00 0.00000E+00
 -1         3 1.00000E+00 1.00000E+00 0.00000E+00
 -1         4 0.00000E+00 1.00000E+00 0.00000E+00
 -1         5 0.00000E+00 0.00000E+00 8.00000E+00
 -1         6 1.00000E+00 0.00000E+00 8.00000E+00
 -1         7 1.00000E+00 1.00000E+00 8.00000E+00
 -1         8 0.00000E+00 1.00000E+00 8.00000E+00
 -1        36 1.00000E+00 0.00000E+00 2.00000E+00
 -1        40 1.00000E+00 0.00000E+00 4.00000E+00
 -1        55 0.00000E+00 0.00000E+00 4.00000E+00
 -1        59 0.00000E+00 0.00000E+00 2.00000E+00
 -1        66 1.00000E+00 1.00000E+00 2.00000E+00
 -1        70 1.00000E+00 1.00000E+00 4.00000E+00
 -1        81 0.00000E+00 1.00000E+00 2.00000E+00
 -1        85 0.00000E+00 1.00000E+00 4.00000E+00
 -3
    3C                             3                                     1
 -1         1    1    0    1
 -2         3        66        81         4         2        36        59         1
 -1         2    1    0    1
 -2        66        70        85        81        36        40        55        59
 -1         3    1    0    1
 -2        70         7         8        85        40         6         5        55
 -3
    1PSTEP                         1           1           1          
  100CL  101 1.00000E-06          16                     1    1           1
 -4  NDTEMP      1    1
 -5  T           1    1    0    0
 -1         1 1.00000E+00
 -1         2 1.00000E+00
 -1         3 1.00000E+00
 -1         4 1.00000E+00
 -1         5 0.00000E+00
 -1         6 0.00000E+00
 -1         7 0.00000E+00
 -1         8 0.00000E+00
 -1        36 1.00000E+00
 -1        40 9.99998E-01
 -1        55 9.99998E-01
 -1        59 1.00000E+00
 -1        66 1.00000E+00
 -1        70 9.99998E-01
 -1        81 1.00000E+00
 -1        85 9.99998E-01
 -3
    1PSTEP                         2           2           1          
  100CL  102 2.00000E-06          16                     1    2           1
 -4  NDTEMP      1    1
 -5  T           1    1    0    0
 -1         1 9.99999E-01
 -1         2 9.99999E-01
 -1         3 9.99999E-01
 -1         4 9.99999E-01
 -1         5 0.00000E+00
 -1         6 0.00000E+00
 -1         7 0.00000E+00
 -1         8 0.00000E+00
 -1        36 1.00000E+00
 -1        40 9.99996E-01
 -1        55 9.99996E-01
 -1        59 1.00000E+00
 -1        66 1.00000E+00
 -1        70 9.99996E-01
 -1        81 1.00000E+00
 -1        85 9.99996E-01
 -3
    1PSTEP                         3           3           1          
  100CL  103 3.50000E-06          16                     1    3           1
 -4  NDTEMP      1    1
 -5  T           1    1    0    0
 -1         1 9.99999E-01
 -1         2 9.99999E-01
 -1         3 9.99999E-01
 -1         4 9.99999E-01
 -1         5 0.00000E+00
 -1         6 0.00000E+00
 -1         7 0.00000E+00
 -1         8 0.00000E+00
 -1        36 1.00000E+00
 -1        40 9.99993E-01
 -1        55 9.99993E-01
 -1        59 1.00000E+00
 -1        66 1.00000E+00
 -1        70 9.99993E-01
 -1        81 1.00000E+00
 -1        85 9.99993E-01
 -3
    1PSTEP                         4           4           1          
  100CL  104 5.75000E-06          16                     1    4           1
 -4  NDTEMP      1    1
 -5  T           1    1    0    0
 -1         1 9.99998E-01
 -1         2 9.99998E-01
 -1         3 9.99998E-01
 -1         4 9.99998E-01
 -1         5 0.00000E+00
 -1         6 0.00000E+00
 -1         7 0.00000E+00
 -1         8 0.00000E+00
 -1        36 1.00000E+00
 -1        40 9.99989E-01
 -1        55 9.99989E-01
 -1        59 1.00000E+00
 -1        66 1.00000E+00
 -1        70 9.99989E-01
 -1        81 1.00000E+00
 -1        85 9.99989E-01
 -3
    1PSTEP                         5           5           1          
  100CL  105 9.12500E-06          16                     1    5           1
 -4  NDTEMP      1    1
 -5  T           1    1    0    0
 -1         1 9.99998E-01
 -1         2 9.99998E-01
 -1         3 9.99998E-01
 -1         4 9.99998E-01
 -1         5 0.00000E+00
 -1         6 0.00000E+00
 -1         7 0.00000E+00
 -1         8 0.00000E+00
 -1        36 1.00000E+00
 -1        40 9.99983E-01
 -1        55 9.99983E-01
 -1        59 1.00000E+00
 -1        66 1.00000E+00
 -1        70 9.99983E-01
 -1        81 1.00000E+00
 -1        85 9.99983E-01
 -3
    1PSTEP                         6           6           1          
  100CL  106 1.41875E-05          16                     1    6           1
 -4  NDTEMP      1    1
 -5  T           1    1    0    0
 -1         1 9.99996E-01
 -1         2 9.99996E-01
 -1         3 9.99996E-01
 -1         4 9.99996E-01
 -1         5 0.00000E+00
 -1         6 0.00000E+00
 -1         7 0.00000E+00
 -1         8 0.00000E+00
 -1        36 1.00001E+00
 -1        40 9.99973E-01
 -1        55 9.99973E-01
 -1        59 1.00001E+00
 -1        66 1.00001E+00
 -1        70 9.99973E-01
 -1        81 1.00001E+00
 -1        85 9.99973E-01
 -3
    1PSTEP                         7           7           1          
  100CL  107 2.17812E-05          16                     1    7           1
 -4  NDTEMP      1    1
 -5  T           1    1    0    0
 -1         1 9.99994E-01
 -1         2 9.99994E-01
 -1         3 9.99994E-01
 -1         4 9.99994E-01
 -1         5 0.00000E+00
 -1         6 0.00000E+00
 -1         7 0.00000E+00
 -1         8 0.00000E+00
 -1        36 1.00001E+00
 -1        40 9.99959E-01
 -1        55 9.99959E-01
 -1        59 1.00001E+00
 -1        66 1.00001E+00
 -1        70 9.99959E-01
 -1        81 1.00001E+00
 -1        85 9.99959E-01
 -3
    1PSTEP                         8           8           1          
  100CL  108 3.31719E-05          16                     1    8           1
 -4  NDTEMP      1    1
 -5  T           1    1    0    0
 -1         1 9.99991E-01
 -1         2 9.99991E-01
 -1         3 9.99991E-01
 -1         4 9.99991E-01
 -1         5 0.00000E+00
 -1         6 0.00000E+00
 -1         7 0.00000E+00
 -1         8 0.00000E+00
 -1        36 1.00002E+00
 -1        40 9.99937E-01
 -1        55 9.99937E-01
 -1        59 1.00002E+00
 -1        66 1.00002E+00
 -1        70 9.99937E-01
 -1        81 1.00002E+00
 -1        85 9.99937E-01
 -3
    1PSTEP                         9           9           1          
  100CL  109 5.02578E-05          16                     1    9           1
 -4  NDTEMP      1    1
 -5  T           1    1    0    0
 -1         1 9.99986E-01
 -1         2 9.99986E-01
 -1         3 9.99986E-01
 -1         4 9.99986E-01
 -1         5 0.00000E+00
 -1         6 0.00000E+00
 -1         7 0.00000E+00
 -1         8 0.00000E+00
 -1        36 1.00003E+00
 -1        40 9.99905E-01
 -1        55 9.99905E-01
 -1        59 1.00003E+00
 -1        66 1.00003E+00
 -1        70 9.99905E-01
 -1        81 1.00003E+00
 -1        85 9.99905E-01
 -3
    1PSTEP                        10          10           1          
  100CL  110 7.58867E-05          16                     1   10           1
 -4  NDTEMP      1    1
 -5  T           1    1    0    0
 -1         1 9.99980E-01
 -1         2 9.99980E-01
 -1         3 9.99980E-01
 -1         4 9.99980E-01
 -1         5 0.00000E+00
 -1         6 0.00000E+00
 -1         7 0.00000E+00
 -1         8 0.00000E+00
 -1        36 1.00004E+00
 -1        40 9.99857E-01
 -1        55 9.99857E-01
 -1        59 1.00004E+00
 -1        66 1.00004E+00
 -1        70 9.99857E-01
 -1        81 1.00004E+00
 -1        85 9.99857E-01
 -3
    1PSTEP                        11          11           1          
  100CL  111 1.14330E-04          16                     1   11           1
 -4  NDTEMP      1    1
 -5  T           1    1    0    0
 -1         1 9.99969E-01
 -1         2 9.99969E-01
 -1         3 9.99969E-01
 -1         4 9.99969E-01
 -1         5 0.00000E+00
 -1         6 0.00000E+00
 -1         7 0.00000E+00
 -1         8 0.00000E+00
 -1        36 1.00006E+00
 -1        40 9.99784E-01
 -1        55 9.99784E-01
 -1        59 1.00006E+00
 -1        66 1.00006E+00
 -1        70 9.99784E-01
 -1        81 1.00006E+00
 -1        85 9.99784E-01
 -3
    1PSTEP                        12          12           1          
  100CL  112 1.71995E-04          16                     1   12           1
 -4  NDTEMP      1    1
 -5  T           1    1    0    0
 -1         1 9.99954E-01
 -1         2 9.99954E-01
 -1         3 9.99954E-01
 -1         4 9.99954E-01
 -1         5 0.00000E+00
 -1         6 0.00000E+00
 -1         7 0.00000E+00
 -1         8 0.00000E+00
 -1        36 1.00009E+00
 -1        40 9.99676E-01
 -1        55 9.99676E-01
 -1        59 1.00009E+00
 -1        66 1.00009E+00
 -1        70 9.99676E-01
 -1        81 1.00009E+00
 -1        85 9.99676E-01
 -3
    1PSTEP                        13          13           1          
  100CL  113 2.58493E-04          16                     1   13           1
 -4  NDTEMP      1    1
 -5  T           1    1    0    0
 -1         1 9.99931E-01
 -1         2 9.99931E-01
 -1         3 9.99931E-01
 -1         4 9.99931E-01
 -1         5 0.00000E+00
 -1         6 0.00000E+00
 -1         7 0.00000E+00
 -1         8 0.00000E+00
 -1        36 1.00014E+00
 -1        40 9.99513E-01
 -1        55 9.99513E-01
 -1        59 1.00014E+00
 -1        66 1.00014E+00
 -1        70 9.99513E-01
 -1        81 1.00014E+00
 -1        85 9.99513E-01
 -3
    1PSTEP                        14          14           1          
  100CL  114 3.88239E-04          16                     1   14           1
 -4  NDTEMP      1    1
 -5  T           1    1    0    0
 -1         1 9.99897E-01
 -1         2 9.99897E-01
 -1         3 9.99897E-01
 -1         4 9.99897E-01
 -1         5 0.00000E+00
 -1         6 0.00000E+00
 -1         7 0.00000E+00
 -1         8 0.00000E+00
 -1        36 1.00021E+00
 -1        40 9.99269E-01
 -1        55 9.99269E-01
 -1        59 1.00021E+00
 -1        66 1.00021E+00
 -1        70 9.99269E-01
 -1        81 1.00021E+00
 -1        85 9.99269E-01
 -3
    1PSTEP                        15          15           1          
  100CL  115 5.82859E-04          16                     1   15           1
 -4  NDTEMP      1    1
 -5  T           1    1    0    0
 -1         1 9.99847E-01
 -1         2 9.99847E-01
 -1         3 9.99847E-01
 -1         4 9.99847E-01
 -1         5 0.00000E+00
 -1         6 0.00000E+00
 -1         7 0.00000E+00
 -1         8 0.00000E+00
 -1        36 1.00031E+00
 -1        40 9.98904E-01
 -1        55 9.98904E-01
 -1        59 1.00031E+00
 -1        66 1.00031E+00
 -1        70 9.98904E-01
 -1        81 1.00031E+00
 -1        85 9.98904E-01
 -3
    1PSTEP                        16          16           1          
  100CL  116 8.74788E-04          16                     1   16           1
 -4  NDTEMP      1    1
 -5  T           1    1    0    0
 -1         1 9.99774E-01
 -1         2 9.99774E-01
 -1         3 9.99774E-01
 -1         4 9.99774E-01
 -1         5 0.00000E+00
 -1         6 0.00000E+00
 -1         7 0.00000E+00
 -1         8 0.00000E+00
 -1        36 1.00046E+00
 -1        40 9.98357E-01
 -1        55 9.98357E-01
 -1        59 1.00046E+00
 -1        66 1.00046E+00
 -1        70 9.98357E-01
 -1        81 1.00046E+00
 -1        85 9.98357E-01
 -3
    1PSTEP                        17          17           1          
  100CL  117 1.31268E-03          16                     1   17           1
 -4  NDTEMP      1    1
 -5  T           1    1    0    0
 -1         1 9.99669E-01
 -1         2 9.99669E-01
 -1         3 9.99669E-01
 -1         4 9.99669E-01
 -1         5 0.00000E+00
 -1         6 0.00000E+00
 -1         7 0.00000E+00
 -1         8 0.00000E+00
 -1        36 1.00068E+00
 -1        40 9.97541E-01
 -1        55 9.97541E-01
 -1        59 1.00068E+00
 -1        66 1.00068E+00
 -1        70 9.97541E-01
 -1        81 1.00068E+00
 -1        85 9.97541E-01
 -3
    1PSTEP                        18          18           1          
  100CL  118 1.96952E-03          16                     1   18           1
 -4  NDTEMP      1    1
 -5  T           1    1    0    0
 -1         1 9.99519E-01
 -1         2 9.99519E-01
 -1         3 9.99519E-01
 -1         4 9.99519E-01
 -1         5 0.00000E+00
 -1         6 0.00000E+00
 -1         7 0.00000E+00
 -1         8 0.00000E+00
 -1        36 1.00100E+00
 -1        40 9.96323E-01
 -1        55 9.96323E-01
 -1        59 1.00100E+00
 -1        66 1.00100E+00
 -1        70 9.96323E-01
 -1        81 1.00100E+00
 -1        85 9.96323E-01
 -3
    1PSTEP                        19          19           1          
  100CL  119 2.95478E-03          16                     1   19           1
 -4  NDTEMP      1    1
 -5  T           1    1    0    0
 -1         1 9.99314E-01
 -1         2 9.99314E-01
 -1         3 9.99314E-01
 -1         4 9.99314E-01
 -1         5 0.00000E+00
 -1         6 0.00000E+00
 -1         7 0.00000E+00
 -1         8 0.00000E+00
 -1        36 1.00146E+00
 -1        40 9.94511E-01
 -1        55 9.94511E-01
 -1        59 1.00146E+00
 -1        66 1.00146E+00
 -1        70 9.94511E-01
 -1        81 1.00146E+00
 -1        85 9.94511E-01
 -3
    1PSTEP                        20          20           1          
  100CL  120 4.43268E-03          16                     1   20           1
 -4  NDTEMP      1    1
 -5  T           1    1    0    0
 -1         1 9.99046E-01
 -1         2 9.99046E-01
 -1         3 9.99046E-01
 -1         4 9.99046E-01
 -1         5 0.00000E+00
 -1         6 0.00000E+00
 -1         7 0.00000E+00
 -1         8 0.00000E+00
 -1        36 1.00209E+00
 -1        40 9.91827E-01
 -1        55 9.91827E-01
 -1        59 1.00209E+00
 -1        66 1.00209E+00
 -1        70 9.91827E-01
 -1        81 1.00209E+00
 -1        85 9.91827E-01
 -3
    1PSTEP                        21          21           1          
  100CL  121 6.64951E-03          16                     1   21           1
 -4  NDTEMP      1    1
 -5  T           1    1    0    0
 -1         1 9.98728E-01
 -1         2 9.98728E-01
 -1         3 9.98728E-01
 -1         4 9.98728E-01
 -1         5 0.00000E+00
 -1         6 0.00000E+00
 -1         7 0.00000E+00
 -1         8 0.00000E+00
 -1        36 1.00293E+00
 -1        40 9.87872E-01
 -1        55 9.87872E-01
 -1        59 1.00293E+00
 -1        66 1.00293E+00
 -1        70 9.87872E-01
 -1        81 1.00293E+00
 -1        85 9.87872E-01
 -3
    1PSTEP                        22          22           1          
  100CL  122 9.97477E-03          16                     1   22           1
 -4  NDTEMP      1    1
 -5  T           1    1    0    0
 -1         1 9.98410E-01
 -1         2 9.98410E-01
 -1         3 9.98410E-01
 -1         4 9.98410E-01
 -1         5 0.00000E+00
 -1         6 0.00000E+00
 -1         7 0.00000E+00
 -1         8 0.00000E+00
 -1        36 1.00396E+00
 -1        40 9.82094E-01
 -1        55 9.82094E-01
 -1        59 1.00396E+00
 -1        66 1.00396E+00
 -1        70 9.82094E-01
 -1        81 1.00396E+00
 -1        85 9.82094E-01
 -3
    1PSTEP                        23          23           1          
  100CL  123 1.49627E-02          16                     1   23           1
 -4  NDTEMP      1    1
 -5  T           1    1    0    0
 -1         1 9.98224E-01
 -1         2 9.98224E-01
 -1         3 9.98224E-01
 -1         4 9.98224E-01
 -1         5 0.00000E+00
 -1         6 0.00000E+00
 -1         7 0.00000E+00
 -1         8 0.00000E+00
 -1        36 1.00507E+00
 -1        40 9.73745E-01
 -1        55 9.73745E-01
 -1        59 1.00507E+00
 -1        66 1.00507E+00
 -1        70 9.73745E-01
 -1        81 1.00507E+00
 -1        85 9.73745E-01
 -3
    1PSTEP                        24          24           1          
  100CL  124 2.24445E-02          16                     1   24           1
 -4  NDTEMP      1    1
 -5  T           1    1    0    0
 -1         1 9.98406E-01
 -1         2 9.98406E-01
 -1         3 9.98406E-01
 -1         4 9.98406E-01
 -1         5 0.00000E+00
 -1         6 0.00000E+00
 -1         7 0.00000E+00
 -1         8 0.00000E+00
 -1        36 1.00591E+00
 -1        40 9.61859E-01
 -1        55 9.61859E-01
 -1        59 1.00591E+00
 -1        66 1.00591E+00
 -1        70 9.61859E-01
 -1        81 1.00591E+00
 -1        85 9.61859E-01
 -3
    1PSTEP                        25          25           1          
  100CL  125 3.36672E-02          16                     1   25           1
 -4  NDTEMP      1    1
 -5  T           1    1    0    0
 -1         1 9.99257E-01
 -1         2 9.99257E-01
 -1         3 9.99257E-01
 -1         4 9.99257E-01
 -1         5 0.00000E+00
 -1         6 0.00000E+00
 -1         7 0.00000E+00
 -1         8 0.00000E+00
 -1        36 1.00579E+00
 -1        40 9.45261E-01
 -1        55 9.45261E-01
 -1        59 1.00579E+00
 -1        66 1.00579E+00
 -1        70 9.45261E-01
 -1        81 1.00579E+00
 -1        85 9.45261E-01
 -3
    1PSTEP                        26          26           1          
  100CL  126 5.05013E-02          16                     1   26           1
 -4  NDTEMP      1    1
 -5  T           1    1    0    0
 -1         1 1.00089E+00
 -1         2 1.00089E+00
 -1         3 1.00089E+00
 -1         4 1.00089E+00
 -1         5 0.00000E+00
 -1         6 0.00000E+00
 -1         7 0.00000E+00
 -1         8 0.00000E+00
 -1        36 1.00347E+00
 -1        40 9.22633E-01
 -1        55 9.22633E-01
 -1        59 1.00347E+00
 -1        66 1.00347E+00
 -1        70 9.22633E-01
 -1        81 1.00347E+00
 -1        85 9.22633E-01
 -3
    1PSTEP                        27          27           1          
  100CL  127 7.57525E-02          16                     1   27           1
 -4  NDTEMP      1    1
 -5  T           1    1    0    0
 -1         1 1.00259E+00
 -1         2 1.00259E+00
 -1         3 1.00259E+00
 -1         4 1.00259E+00
 -1         5 0.00000E+00
 -1         6 0.00000E+00
 -1         7 0.00000E+00
 -1         8 0.00000E+00
 -1        36 9.97079E-01
 -1        40 8.92675E-01
 -1        55 8.92675E-01
 -1        59 9.97079E-01
 -1        66 9.97079E-01
 -1        70 8.92675E-01
 -1        81 9.97079E-01
 -1        85 8.92675E-01
 -3
    1PSTEP                        28          28           1          
  100CL  128 1.00000E-01          16                     1   28           1
 -4  NDTEMP      1    1
 -5  T           1    1    0    0
 -1         1 1.00293E+00
 -1         2 1.00293E+00
 -1         3 1.00293E+00
 -1         4 1.00293E+00
 -1         5 0.00000E+00
 -1         6 0.00000E+00
 -1         7 0.00000E+00
 -1         8 0.00000E+00
 -1        36 9.89240E-01
 -1        40 8.66878E-01
 -1        55 8.66878E-01
 -1        59 9.89240E-01
 -1        66 9.89240E-01
 -1        70 8.66878E-01
 -1        81 9.89240E-01
 -1        85 8.66878E-01
 -3
 9999
