    1C
    1UUSER                                                              
    1UDATE              15.december.2018                                
    1UTIME              15:56:42                                        
    1UHOST                                                              
    1UPGM               CalculiX                                        
    1UVERSION           Version 2.15                             
    1UCOMPILETIME       Sa 15. Dez 14:32:01 CET 2018                    
    1UDIR                                                               
    1UDBN                                                               
    1UMAT    1ALUM                                                      
    2C                            21                                     1
 -1         1 0.00000E+00 0.00000E+00 0.00000E+00
 -1         2 1.00000E+00 0.00000E+00 0.00000E+00
 -1         3 2.00000E+00 0.00000E+00 0.00000E+00
 -1         4 3.00000E+00 0.00000E+00 0.00000E+00
 -1         5 4.00000E+00 0.00000E+00 0.00000E+00
 -1         6 5.00000E+00 0.00000E+00 0.00000E+00
 -1         7 6.00000E+00 0.00000E+00 0.00000E+00
 -1         8 7.00000E+00 0.00000E+00 0.00000E+00
 -1         9 8.00000E+00 0.00000E+00 0.00000E+00
 -1        10 9.00000E+00 0.00000E+00 0.00000E+00
 -1        11 1.00000E+01 0.00000E+00 0.00000E+00
 -1        12 1.10000E+01 0.00000E+00 0.00000E+00
 -1        13 1.20000E+01 0.00000E+00 0.00000E+00
 -1        14 1.30000E+01 0.00000E+00 0.00000E+00
 -1        15 1.40000E+01 0.00000E+00 0.00000E+00
 -1        16 1.50000E+01 0.00000E+00 0.00000E+00
 -1        17 1.60000E+01 0.00000E+00 0.00000E+00
 -1        18 1.70000E+01 0.00000E+00 0.00000E+00
 -1        19 1.80000E+01 0.00000E+00 0.00000E+00
 -1        20 1.90000E+01 0.00000E+00 0.00000E+00
 -1        21 2.00000E+01 0.00000E+00 0.00000E+00
 -3
    3C                            10                                     1
 -1         1   12    0    1
 -2         1         3         2
 -1         2   12    0    1
 -2         3         5         4
 -1         3   12    0    1
 -2         5         7         6
 -1         4   12    0    1
 -2         7         9         8
 -1         5   12    0    1
 -2         9        11        10
 -1         6   12    0    1
 -2        11        13        12
 -1         7   12    0    1
 -2        13        15        14
 -1         8   12    0    1
 -2        15        17        16
 -1         9   12    0    1
 -2        17        19        18
 -1        10   12    0    1
 -2        19        21        20
 -3
    1PSTEP                         1           1           1          
  100CL  101 1.000000000          21                     0    1           1
 -4  DISP        4    1
 -5  D1          1    2    1    0
 -5  D2          1    2    2    0
 -5  D3          1    2    3    0
 -5  ALL         1    2    0    0    1ALL
 -1         1 1.32349E-23-1.73549E-29-2.52435E-29
 -1         2-1.99137E-12 1.33212E-23-2.59208E-06
 -1         3-3.98274E-12 3.44670E-23-5.18415E-06
 -1         4-4.64658E-12 1.45647E-22-7.20004E-06
 -1         5-5.31042E-12 4.69623E-22-9.21593E-06
 -1         6-4.97871E-12 1.20834E-22-1.06556E-05
 -1         7-4.64700E-12 1.53383E-22-1.20953E-05
 -1         8-3.65183E-12 5.00163E-22-1.29589E-05
 -1         9-2.65665E-12 4.63252E-23-1.38225E-05
 -1        10-1.32996E-12-9.54329E-22-1.41101E-05
 -1        11-3.26139E-15-2.87330E-23-1.43977E-05
 -1        12 1.32309E-12-6.27138E-22-1.41089E-05
 -1        13 2.64944E-12 6.02606E-23-1.38201E-05
 -1        14 3.64430E-12-2.76877E-23-1.29561E-05
 -1        15 4.63916E-12-6.41570E-23-1.20922E-05
 -1        16 4.97074E-12-1.39188E-22-1.06524E-05
 -1        17 5.30232E-12-2.75389E-22-9.21261E-06
 -1        18 4.63936E-12 2.81651E-22-7.19716E-06
 -1        19 3.97640E-12-9.62437E-23-5.18171E-06
 -1        20 1.98820E-12-1.35861E-22-2.59086E-06
 -1        21 0.00000E+00-1.89327E-29-2.52435E-29
 -3
    1PSTEP                         2           1           1          
  100CL  101 1.000000000          21                     0    1           1
 -4  STRESS      6    1
 -5  SXX         1    4    1    1
 -5  SYY         1    4    2    2
 -5  SZZ         1    4    3    3
 -5  SXY         1    4    1    2
 -5  SYZ         1    4    2    3
 -5  SZX         1    4    3    1
 -1         1-4.78339E-09-2.03019E-12 1.58316E-02-7.62012E-14 9.40259E-13 1.59221E-09
 -1         2-2.39327E-09-3.49021E-13 1.58316E-02 1.19083E-13-3.85628E-13 1.59553E-09
 -1         3-3.14918E-12 1.33215E-12 1.58316E-02 3.14367E-13-1.71152E-12 1.59885E-09
 -1         4-3.21535E-12 3.46319E-12 1.58316E-02 3.34671E-13-2.22119E-12 1.59429E-09
 -1         5-3.28152E-12 5.59423E-12 1.58316E-02 3.54975E-13-2.73086E-12 1.58973E-09
 -1         6-4.54364E-12 4.57494E-13 1.58316E-02 1.57362E-13 6.77483E-13 1.58816E-09
 -1         7-5.80575E-12-4.67924E-12 1.58316E-02-4.02504E-14 4.08583E-12 1.58660E-09
 -1         8 7.84576E-13 1.66808E-12 1.58316E-02-2.05776E-13 5.98388E-13 1.58442E-09
 -1         9 7.37490E-12 8.01540E-12 1.58316E-02-3.71301E-13-2.88905E-12 1.58225E-09
 -1        10 3.30716E-12 3.14598E-12 1.58316E-02-6.59545E-13-5.79344E-12 1.58847E-09
 -1        11-7.60570E-13-1.72343E-12 1.58316E-02-9.47790E-13-8.69782E-12 1.59469E-09
 -1        12 2.81487E-12-3.75700E-12 1.58317E-02-6.60924E-13-4.34870E-12 1.58606E-09
 -1        13 6.39032E-12-5.79056E-12 1.58317E-02-3.74058E-13 4.17472E-16 1.57742E-09
 -1        14-1.32219E-12-3.64317E-12 1.58317E-02 1.22413E-13-8.34033E-14 1.58712E-09
 -1        15-9.03469E-12-1.49579E-12 1.58318E-02 6.18883E-13-1.67224E-13 1.59683E-09
 -1        16 7.21935E-13-2.01951E-12 1.58318E-02-1.23496E-13-3.21542E-12 1.59131E-09
 -1        17 1.04786E-11-2.54324E-12 1.58317E-02-8.65876E-13-6.26362E-12 1.58578E-09
 -1        18 9.61447E-12 4.11994E-13 1.58317E-02-4.10001E-13-1.19663E-12 1.58204E-09
 -1        19 8.75038E-12 3.36723E-12 1.58317E-02 4.58741E-14 3.87036E-12 1.57829E-09
 -1        20 2.39689E-09 1.30574E-12 1.58317E-02-4.22085E-13 3.92903E-12 1.57168E-09
 -1        21 4.78503E-09-7.55741E-13 1.58318E-02-8.90045E-13 3.98770E-12 1.56507E-09
 -3
 9999
