    1C
    1UUSER                                                              
    1UDATE              15.december.2018                                
    1UTIME              15:56:42                                        
    1UHOST                                                              
    1UPGM               CalculiX                                        
    1UVERSION           Version 2.15                             
    1UCOMPILETIME       Sa 15. Dez 14:32:01 CET 2018                    
    1UDIR                                                               
    1UDBN                                                               
    1UMAT    1ALUM                                                      
    2C                            16                                     1
 -1         4 8.83883E-02-1.25000E-01-8.83883E-02
 -1         5 8.83883E-02 1.25000E-01-8.83883E-02
 -1         6-8.83883E-02 1.25000E-01 8.83883E-02
 -1         7-8.83883E-02-1.25000E-01 8.83883E-02
 -1        13 5.08839E+00-1.25000E-01 4.91161E+00
 -1        14 5.08839E+00 1.25000E-01 4.91161E+00
 -1        15 4.91161E+00 1.25000E-01 5.08839E+00
 -1        16 4.91161E+00-1.25000E-01 5.08839E+00
 -1        22 5.08839E+00-1.25000E-01 5.08839E+00
 -1        23 5.08839E+00 1.25000E-01 5.08839E+00
 -1        24 4.91161E+00 1.25000E-01 4.91161E+00
 -1        25 4.91161E+00-1.25000E-01 4.91161E+00
 -1        31 8.83883E-02-1.25000E-01 1.00884E+01
 -1        32 8.83883E-02 1.25000E-01 1.00884E+01
 -1        33-8.83883E-02 1.25000E-01 9.91161E+00
 -1        34-8.83883E-02-1.25000E-01 9.91161E+00
 -3
    3C                             2                                     1
 -1         1    1    0    1
 -2         4        13        14         5         7        16        15         6
 -1         2    1    0    1
 -2        22        31        32        23        25        34        33        24
 -3
    1PSTEP                         1           1           1          
  100CL  101 1.000000000          16                     0    1           1
 -4  DISP        4    1
 -5  D1          1    2    1    0
 -5  D2          1    2    2    0
 -5  D3          1    2    3    0
 -5  ALL         1    2    0    0    1ALL
 -1         4-1.05232E-07 4.24264E-08-4.52316E-08
 -1         5-1.54768E-07-4.24264E-08-9.47684E-08
 -1         6 1.05232E-07-4.24264E-08 4.52316E-08
 -1         7 1.54768E-07 4.24264E-08 9.47684E-08
 -1        13 1.12085E-05 2.02390E-06-4.52316E-08
 -1        14 1.11589E-05 1.93905E-06-9.47684E-08
 -1        15 1.14189E-05 1.93905E-06 4.52316E-08
 -1        16 1.14685E-05 2.02390E-06 9.47684E-08
 -1        22 1.12085E-05 2.02390E-06 4.52316E-08
 -1        23 1.11589E-05 1.93905E-06 9.47684E-08
 -1        24 1.14189E-05 1.93905E-06-4.52316E-08
 -1        25 1.14685E-05 2.02390E-06-9.47684E-08
 -1        31-1.05232E-07 4.24264E-08 4.52316E-08
 -1        32-1.54768E-07-4.24264E-08 9.47684E-08
 -1        33 1.05232E-07-4.24264E-08-4.52316E-08
 -1        34 1.54768E-07 4.24264E-08-9.47684E-08
 -3
    1PSTEP                         2           1           1          
  100CL  101 1.000000000          16                     0    1           1
 -4  STRESS      6    1
 -5  SXX         1    4    1    1
 -5  SYY         1    4    2    2
 -5  SZZ         1    4    3    3
 -5  SXY         1    4    1    2
 -5  SYZ         1    4    2    3
 -5  SZX         1    4    3    1
 -1         4 5.65663E+00 3.38853E-13 5.65663E+00 2.94220E-14 1.95515E-14 5.65663E+00
 -1         5 5.65663E+00 2.66281E-14 5.65663E+00 5.25189E-14-5.65477E-14 5.65663E+00
 -1         6 5.65663E+00-2.74203E-13 5.65663E+00-9.34279E-14-3.95265E-13 5.65663E+00
 -1         7 5.65663E+00 6.75918E-14 5.65663E+00-1.07290E-13-3.26577E-13 5.65663E+00
 -1        13 5.65663E+00-3.88811E-13 5.65663E+00 2.32348E-13 1.19277E-13 5.65663E+00
 -1        14 5.65663E+00 3.14404E-14 5.65663E+00 1.26793E-13 1.30303E-13 5.65663E+00
 -1        15 5.65663E+00 1.81171E-13 5.65663E+00-6.40910E-13-2.25905E-13 5.65663E+00
 -1        16 5.65663E+00-2.23355E-13 5.65663E+00-5.78490E-13-2.45401E-13 5.65663E+00
 -1        22 5.65663E+00 1.19039E-13 5.65663E+00-1.00297E-13 1.03103E-13-5.65663E+00
 -1        23 5.65663E+00-4.88115E-13 5.65663E+00-1.57716E-13 1.80782E-14-5.65663E+00
 -1        24 5.65663E+00 4.81922E-14 5.65663E+00 2.66051E-13 8.71063E-14-5.65663E+00
 -1        25 5.65663E+00 6.34030E-13 5.65663E+00 3.27032E-13 1.76377E-13-5.65663E+00
 -1        31 5.65663E+00-2.07176E-13 5.65663E+00 1.81587E-13 6.39184E-14-5.65663E+00
 -1        32 5.65663E+00 2.24826E-13 5.65663E+00 2.03069E-13 7.20756E-14-5.65663E+00
 -1        33 5.65663E+00 1.88265E-13 5.65663E+00-3.07842E-13 2.34884E-14-5.65663E+00
 -1        34 5.65663E+00-2.65052E-13 5.65663E+00-3.31052E-13 2.11640E-14-5.65663E+00
 -3
 9999
