    1C
    1UUSER                                                              
    1UDATE              14.july.2012                                    
    1UTIME              11:02:22                                        
    1UHOST                                                              
    1UPGM               CalculiX                                        
    1UDIR                                                               
    1UDBN                                                               
    2C                           282                                     1
 -1         1 0.00000E+00 0.00000E+00 0.00000E+00
 -1         2 1.00000E+00 0.00000E+00 0.00000E+00
 -1         3 1.00000E+00 1.00000E+00 0.00000E+00
 -1         4 0.00000E+00 1.00000E+00 0.00000E+00
 -1         9 2.50000E-01 0.00000E+00 0.00000E+00
 -1        10 5.00000E-01 0.00000E+00 0.00000E+00
 -1        11 7.50000E-01 0.00000E+00 0.00000E+00
 -1        12 1.00000E+00 2.50000E-01 0.00000E+00
 -1        13 1.00000E+00 5.00000E-01 0.00000E+00
 -1        14 1.00000E+00 7.50000E-01 0.00000E+00
 -1        15 7.50000E-01 1.00000E+00 0.00000E+00
 -1        16 5.00000E-01 1.00000E+00 0.00000E+00
 -1        17 2.50000E-01 1.00000E+00 0.00000E+00
 -1        18 0.00000E+00 7.50000E-01 0.00000E+00
 -1        19 0.00000E+00 5.00000E-01 0.00000E+00
 -1        20 0.00000E+00 2.50000E-01 0.00000E+00
 -1        33 1.00000E+00 0.00000E+00 5.00000E-01
 -1        34 1.00000E+00 0.00000E+00 1.00000E+00
 -1        35 1.00000E+00 0.00000E+00 1.50000E+00
 -1        36 1.00000E+00 0.00000E+00 2.00000E+00
 -1        37 1.00000E+00 0.00000E+00 2.50000E+00
 -1        38 1.00000E+00 0.00000E+00 3.00000E+00
 -1        39 1.00000E+00 0.00000E+00 3.50000E+00
 -1        40 1.00000E+00 0.00000E+00 4.00000E+00
 -1        55 0.00000E+00 0.00000E+00 4.00000E+00
 -1        56 0.00000E+00 0.00000E+00 3.50000E+00
 -1        57 0.00000E+00 0.00000E+00 3.00000E+00
 -1        58 0.00000E+00 0.00000E+00 2.50000E+00
 -1        59 0.00000E+00 0.00000E+00 2.00000E+00
 -1        60 0.00000E+00 0.00000E+00 1.50000E+00
 -1        61 0.00000E+00 0.00000E+00 1.00000E+00
 -1        62 0.00000E+00 0.00000E+00 5.00000E-01
 -1        63 1.00000E+00 1.00000E+00 5.00000E-01
 -1        64 1.00000E+00 1.00000E+00 1.00000E+00
 -1        65 1.00000E+00 1.00000E+00 1.50000E+00
 -1        66 1.00000E+00 1.00000E+00 2.00000E+00
 -1        67 1.00000E+00 1.00000E+00 2.50000E+00
 -1        68 1.00000E+00 1.00000E+00 3.00000E+00
 -1        69 1.00000E+00 1.00000E+00 3.50000E+00
 -1        70 1.00000E+00 1.00000E+00 4.00000E+00
 -1        78 0.00000E+00 1.00000E+00 5.00000E-01
 -1        79 0.00000E+00 1.00000E+00 1.00000E+00
 -1        80 0.00000E+00 1.00000E+00 1.50000E+00
 -1        81 0.00000E+00 1.00000E+00 2.00000E+00
 -1        82 0.00000E+00 1.00000E+00 2.50000E+00
 -1        83 0.00000E+00 1.00000E+00 3.00000E+00
 -1        84 0.00000E+00 1.00000E+00 3.50000E+00
 -1        85 0.00000E+00 1.00000E+00 4.00000E+00
 -1        93 5.00000E-01 2.50000E-01 0.00000E+00
 -1        94 2.50000E-01 5.00000E-01 0.00000E+00
 -1        95 5.00000E-01 5.00000E-01 0.00000E+00
 -1        96 7.50000E-01 5.00000E-01 0.00000E+00
 -1        97 5.00000E-01 7.50000E-01 0.00000E+00
 -1       103 5.00000E-01 0.00000E+00 5.00000E-01
 -1       104 2.50000E-01 0.00000E+00 1.00000E+00
 -1       105 5.00000E-01 0.00000E+00 1.00000E+00
 -1       106 7.50000E-01 0.00000E+00 1.00000E+00
 -1       107 5.00000E-01 0.00000E+00 1.50000E+00
 -1       108 2.50000E-01 0.00000E+00 2.00000E+00
 -1       109 5.00000E-01 0.00000E+00 2.00000E+00
 -1       110 7.50000E-01 0.00000E+00 2.00000E+00
 -1       111 5.00000E-01 0.00000E+00 2.50000E+00
 -1       112 2.50000E-01 0.00000E+00 3.00000E+00
 -1       113 5.00000E-01 0.00000E+00 3.00000E+00
 -1       114 7.50000E-01 0.00000E+00 3.00000E+00
 -1       115 5.00000E-01 0.00000E+00 3.50000E+00
 -1       116 2.50000E-01 0.00000E+00 4.00000E+00
 -1       117 5.00000E-01 0.00000E+00 4.00000E+00
 -1       118 7.50000E-01 0.00000E+00 4.00000E+00
 -1       132 1.00000E+00 5.00000E-01 5.00000E-01
 -1       133 1.00000E+00 2.50000E-01 1.00000E+00
 -1       134 1.00000E+00 5.00000E-01 1.00000E+00
 -1       135 1.00000E+00 7.50000E-01 1.00000E+00
 -1       136 1.00000E+00 5.00000E-01 1.50000E+00
 -1       137 1.00000E+00 2.50000E-01 2.00000E+00
 -1       138 1.00000E+00 5.00000E-01 2.00000E+00
 -1       139 1.00000E+00 7.50000E-01 2.00000E+00
 -1       140 1.00000E+00 5.00000E-01 2.50000E+00
 -1       141 1.00000E+00 2.50000E-01 3.00000E+00
 -1       142 1.00000E+00 5.00000E-01 3.00000E+00
 -1       143 1.00000E+00 7.50000E-01 3.00000E+00
 -1       144 1.00000E+00 5.00000E-01 3.50000E+00
 -1       145 1.00000E+00 2.50000E-01 4.00000E+00
 -1       146 1.00000E+00 5.00000E-01 4.00000E+00
 -1       147 1.00000E+00 7.50000E-01 4.00000E+00
 -1       161 5.00000E-01 1.00000E+00 5.00000E-01
 -1       162 7.50000E-01 1.00000E+00 1.00000E+00
 -1       163 5.00000E-01 1.00000E+00 1.00000E+00
 -1       164 2.50000E-01 1.00000E+00 1.00000E+00
 -1       165 5.00000E-01 1.00000E+00 1.50000E+00
 -1       166 7.50000E-01 1.00000E+00 2.00000E+00
 -1       167 5.00000E-01 1.00000E+00 2.00000E+00
 -1       168 2.50000E-01 1.00000E+00 2.00000E+00
 -1       169 5.00000E-01 1.00000E+00 2.50000E+00
 -1       170 7.50000E-01 1.00000E+00 3.00000E+00
 -1       171 5.00000E-01 1.00000E+00 3.00000E+00
 -1       172 2.50000E-01 1.00000E+00 3.00000E+00
 -1       173 5.00000E-01 1.00000E+00 3.50000E+00
 -1       174 7.50000E-01 1.00000E+00 4.00000E+00
 -1       175 5.00000E-01 1.00000E+00 4.00000E+00
 -1       176 2.50000E-01 1.00000E+00 4.00000E+00
 -1       190 0.00000E+00 5.00000E-01 5.00000E-01
 -1       191 0.00000E+00 7.50000E-01 1.00000E+00
 -1       192 0.00000E+00 5.00000E-01 1.00000E+00
 -1       193 0.00000E+00 2.50000E-01 1.00000E+00
 -1       194 0.00000E+00 5.00000E-01 1.50000E+00
 -1       195 0.00000E+00 7.50000E-01 2.00000E+00
 -1       196 0.00000E+00 5.00000E-01 2.00000E+00
 -1       197 0.00000E+00 2.50000E-01 2.00000E+00
 -1       198 0.00000E+00 5.00000E-01 2.50000E+00
 -1       199 0.00000E+00 7.50000E-01 3.00000E+00
 -1       200 0.00000E+00 5.00000E-01 3.00000E+00
 -1       201 0.00000E+00 2.50000E-01 3.00000E+00
 -1       202 0.00000E+00 5.00000E-01 3.50000E+00
 -1       203 0.00000E+00 7.50000E-01 4.00000E+00
 -1       204 0.00000E+00 5.00000E-01 4.00000E+00
 -1       205 0.00000E+00 2.50000E-01 4.00000E+00
 -1       219 5.00000E-01 5.00000E-01 5.00000E-01
 -1       220 5.00000E-01 2.50000E-01 1.00000E+00
 -1       221 2.50000E-01 5.00000E-01 1.00000E+00
 -1       222 5.00000E-01 5.00000E-01 1.00000E+00
 -1       223 7.50000E-01 5.00000E-01 1.00000E+00
 -1       224 5.00000E-01 7.50000E-01 1.00000E+00
 -1       225 5.00000E-01 5.00000E-01 1.50000E+00
 -1       226 5.00000E-01 2.50000E-01 2.00000E+00
 -1       227 2.50000E-01 5.00000E-01 2.00000E+00
 -1       228 5.00000E-01 5.00000E-01 2.00000E+00
 -1       229 7.50000E-01 5.00000E-01 2.00000E+00
 -1       230 5.00000E-01 7.50000E-01 2.00000E+00
 -1       231 5.00000E-01 5.00000E-01 2.50000E+00
 -1       232 5.00000E-01 2.50000E-01 3.00000E+00
 -1       233 2.50000E-01 5.00000E-01 3.00000E+00
 -1       234 5.00000E-01 5.00000E-01 3.00000E+00
 -1       235 7.50000E-01 5.00000E-01 3.00000E+00
 -1       236 5.00000E-01 7.50000E-01 3.00000E+00
 -1       237 5.00000E-01 5.00000E-01 3.50000E+00
 -1       238 5.00000E-01 2.50000E-01 4.00000E+00
 -1       239 2.50000E-01 5.00000E-01 4.00000E+00
 -1       240 5.00000E-01 5.00000E-01 4.00000E+00
 -1       241 7.50000E-01 5.00000E-01 4.00000E+00
 -1       242 5.00000E-01 7.50000E-01 4.00000E+00
 -1       243 0.00000E+00 0.00000E+00 8.00000E+00
 -1       244 1.00000E+00 0.00000E+00 8.00000E+00
 -1       245 1.00000E+00 1.00000E+00 8.00000E+00
 -1       246 0.00000E+00 1.00000E+00 8.00000E+00
 -1       247 2.50000E-01 0.00000E+00 8.00000E+00
 -1       248 5.00000E-01 0.00000E+00 8.00000E+00
 -1       249 7.50000E-01 0.00000E+00 8.00000E+00
 -1       250 1.00000E+00 2.50000E-01 8.00000E+00
 -1       251 1.00000E+00 5.00000E-01 8.00000E+00
 -1       252 1.00000E+00 7.50000E-01 8.00000E+00
 -1       253 7.50000E-01 1.00000E+00 8.00000E+00
 -1       254 5.00000E-01 1.00000E+00 8.00000E+00
 -1       255 2.50000E-01 1.00000E+00 8.00000E+00
 -1       256 0.00000E+00 7.50000E-01 8.00000E+00
 -1       257 0.00000E+00 5.00000E-01 8.00000E+00
 -1       258 0.00000E+00 2.50000E-01 8.00000E+00
 -1       259 1.00000E+00 0.00000E+00 4.00000E+00
 -1       260 1.00000E+00 0.00000E+00 4.50000E+00
 -1       261 1.00000E+00 0.00000E+00 5.00000E+00
 -1       262 1.00000E+00 0.00000E+00 5.50000E+00
 -1       263 1.00000E+00 0.00000E+00 6.00000E+00
 -1       264 1.00000E+00 0.00000E+00 6.50000E+00
 -1       265 1.00000E+00 0.00000E+00 7.00000E+00
 -1       266 1.00000E+00 0.00000E+00 7.50000E+00
 -1       267 0.00000E+00 0.00000E+00 7.50000E+00
 -1       268 0.00000E+00 0.00000E+00 7.00000E+00
 -1       269 0.00000E+00 0.00000E+00 6.50000E+00
 -1       270 0.00000E+00 0.00000E+00 6.00000E+00
 -1       271 0.00000E+00 0.00000E+00 5.50000E+00
 -1       272 0.00000E+00 0.00000E+00 5.00000E+00
 -1       273 0.00000E+00 0.00000E+00 4.50000E+00
 -1       274 0.00000E+00 0.00000E+00 4.00000E+00
 -1       275 1.00000E+00 1.00000E+00 4.00000E+00
 -1       276 1.00000E+00 1.00000E+00 4.50000E+00
 -1       277 1.00000E+00 1.00000E+00 5.00000E+00
 -1       278 1.00000E+00 1.00000E+00 5.50000E+00
 -1       279 1.00000E+00 1.00000E+00 6.00000E+00
 -1       280 1.00000E+00 1.00000E+00 6.50000E+00
 -1       281 1.00000E+00 1.00000E+00 7.00000E+00
 -1       282 1.00000E+00 1.00000E+00 7.50000E+00
 -1       283 0.00000E+00 1.00000E+00 4.00000E+00
 -1       284 0.00000E+00 1.00000E+00 4.50000E+00
 -1       285 0.00000E+00 1.00000E+00 5.00000E+00
 -1       286 0.00000E+00 1.00000E+00 5.50000E+00
 -1       287 0.00000E+00 1.00000E+00 6.00000E+00
 -1       288 0.00000E+00 1.00000E+00 6.50000E+00
 -1       289 0.00000E+00 1.00000E+00 7.00000E+00
 -1       290 0.00000E+00 1.00000E+00 7.50000E+00
 -1       291 5.00000E-01 2.50000E-01 8.00000E+00
 -1       292 2.50000E-01 5.00000E-01 8.00000E+00
 -1       293 5.00000E-01 5.00000E-01 8.00000E+00
 -1       294 7.50000E-01 5.00000E-01 8.00000E+00
 -1       295 5.00000E-01 7.50000E-01 8.00000E+00
 -1       296 2.50000E-01 0.00000E+00 4.00000E+00
 -1       297 5.00000E-01 0.00000E+00 4.00000E+00
 -1       298 7.50000E-01 0.00000E+00 4.00000E+00
 -1       299 5.00000E-01 0.00000E+00 4.50000E+00
 -1       300 2.50000E-01 0.00000E+00 5.00000E+00
 -1       301 5.00000E-01 0.00000E+00 5.00000E+00
 -1       302 7.50000E-01 0.00000E+00 5.00000E+00
 -1       303 5.00000E-01 0.00000E+00 5.50000E+00
 -1       304 2.50000E-01 0.00000E+00 6.00000E+00
 -1       305 5.00000E-01 0.00000E+00 6.00000E+00
 -1       306 7.50000E-01 0.00000E+00 6.00000E+00
 -1       307 5.00000E-01 0.00000E+00 6.50000E+00
 -1       308 2.50000E-01 0.00000E+00 7.00000E+00
 -1       309 5.00000E-01 0.00000E+00 7.00000E+00
 -1       310 7.50000E-01 0.00000E+00 7.00000E+00
 -1       311 5.00000E-01 0.00000E+00 7.50000E+00
 -1       312 1.00000E+00 2.50000E-01 4.00000E+00
 -1       313 1.00000E+00 5.00000E-01 4.00000E+00
 -1       314 1.00000E+00 7.50000E-01 4.00000E+00
 -1       315 1.00000E+00 5.00000E-01 4.50000E+00
 -1       316 1.00000E+00 2.50000E-01 5.00000E+00
 -1       317 1.00000E+00 5.00000E-01 5.00000E+00
 -1       318 1.00000E+00 7.50000E-01 5.00000E+00
 -1       319 1.00000E+00 5.00000E-01 5.50000E+00
 -1       320 1.00000E+00 2.50000E-01 6.00000E+00
 -1       321 1.00000E+00 5.00000E-01 6.00000E+00
 -1       322 1.00000E+00 7.50000E-01 6.00000E+00
 -1       323 1.00000E+00 5.00000E-01 6.50000E+00
 -1       324 1.00000E+00 2.50000E-01 7.00000E+00
 -1       325 1.00000E+00 5.00000E-01 7.00000E+00
 -1       326 1.00000E+00 7.50000E-01 7.00000E+00
 -1       327 1.00000E+00 5.00000E-01 7.50000E+00
 -1       328 7.50000E-01 1.00000E+00 4.00000E+00
 -1       329 5.00000E-01 1.00000E+00 4.00000E+00
 -1       330 2.50000E-01 1.00000E+00 4.00000E+00
 -1       331 5.00000E-01 1.00000E+00 4.50000E+00
 -1       332 7.50000E-01 1.00000E+00 5.00000E+00
 -1       333 5.00000E-01 1.00000E+00 5.00000E+00
 -1       334 2.50000E-01 1.00000E+00 5.00000E+00
 -1       335 5.00000E-01 1.00000E+00 5.50000E+00
 -1       336 7.50000E-01 1.00000E+00 6.00000E+00
 -1       337 5.00000E-01 1.00000E+00 6.00000E+00
 -1       338 2.50000E-01 1.00000E+00 6.00000E+00
 -1       339 5.00000E-01 1.00000E+00 6.50000E+00
 -1       340 7.50000E-01 1.00000E+00 7.00000E+00
 -1       341 5.00000E-01 1.00000E+00 7.00000E+00
 -1       342 2.50000E-01 1.00000E+00 7.00000E+00
 -1       343 5.00000E-01 1.00000E+00 7.50000E+00
 -1       344 0.00000E+00 7.50000E-01 4.00000E+00
 -1       345 0.00000E+00 5.00000E-01 4.00000E+00
 -1       346 0.00000E+00 2.50000E-01 4.00000E+00
 -1       347 0.00000E+00 5.00000E-01 4.50000E+00
 -1       348 0.00000E+00 7.50000E-01 5.00000E+00
 -1       349 0.00000E+00 5.00000E-01 5.00000E+00
 -1       350 0.00000E+00 2.50000E-01 5.00000E+00
 -1       351 0.00000E+00 5.00000E-01 5.50000E+00
 -1       352 0.00000E+00 7.50000E-01 6.00000E+00
 -1       353 0.00000E+00 5.00000E-01 6.00000E+00
 -1       354 0.00000E+00 2.50000E-01 6.00000E+00
 -1       355 0.00000E+00 5.00000E-01 6.50000E+00
 -1       356 0.00000E+00 7.50000E-01 7.00000E+00
 -1       357 0.00000E+00 5.00000E-01 7.00000E+00
 -1       358 0.00000E+00 2.50000E-01 7.00000E+00
 -1       359 0.00000E+00 5.00000E-01 7.50000E+00
 -1       360 5.00000E-01 2.50000E-01 4.00000E+00
 -1       361 2.50000E-01 5.00000E-01 4.00000E+00
 -1       362 5.00000E-01 5.00000E-01 4.00000E+00
 -1       363 7.50000E-01 5.00000E-01 4.00000E+00
 -1       364 5.00000E-01 7.50000E-01 4.00000E+00
 -1       365 5.00000E-01 5.00000E-01 4.50000E+00
 -1       366 5.00000E-01 2.50000E-01 5.00000E+00
 -1       367 2.50000E-01 5.00000E-01 5.00000E+00
 -1       368 5.00000E-01 5.00000E-01 5.00000E+00
 -1       369 7.50000E-01 5.00000E-01 5.00000E+00
 -1       370 5.00000E-01 7.50000E-01 5.00000E+00
 -1       371 5.00000E-01 5.00000E-01 5.50000E+00
 -1       372 5.00000E-01 2.50000E-01 6.00000E+00
 -1       373 2.50000E-01 5.00000E-01 6.00000E+00
 -1       374 5.00000E-01 5.00000E-01 6.00000E+00
 -1       375 7.50000E-01 5.00000E-01 6.00000E+00
 -1       376 5.00000E-01 7.50000E-01 6.00000E+00
 -1       377 5.00000E-01 5.00000E-01 6.50000E+00
 -1       378 5.00000E-01 2.50000E-01 7.00000E+00
 -1       379 2.50000E-01 5.00000E-01 7.00000E+00
 -1       380 5.00000E-01 5.00000E-01 7.00000E+00
 -1       381 7.50000E-01 5.00000E-01 7.00000E+00
 -1       382 5.00000E-01 7.50000E-01 7.00000E+00
 -1       383 5.00000E-01 5.00000E-01 7.50000E+00
 -3
    3C                            32                                     1
 -1         1    4    0EL   
 -2         1        10        95        19        61       105       222       192         9        93
 -2        94        20        62       103       219       190       104       220       221       193
 -1         2    4    0EL   
 -2        10         2        13        95       105        34       134       222        11        12
 -2        96        93       103        33       132       219       106       133       223       220
 -1         3    4    0EL   
 -2        19        95        16         4       192       222       163        79        94        97
 -2        17        18       190       219       161        78       221       224       164       191
 -1         4    4    0EL   
 -2        95        13         3        16       222       134        64       163        96        14
 -2        15        97       219       132        63       161       223       135       162       224
 -1         5    4    0EL   
 -2        61       105       222       192        59       109       228       196       104       220
 -2       221       193        60       107       225       194       108       226       227       197
 -1         6    4    0EL   
 -2       105        34       134       222       109        36       138       228       106       133
 -2       223       220       107        35       136       225       110       137       229       226
 -1         7    4    0EL   
 -2       192       222       163        79       196       228       167        81       221       224
 -2       164       191       194       225       165        80       227       230       168       195
 -1         8    4    0EL   
 -2       222       134        64       163       228       138        66       167       223       135
 -2       162       224       225       136        65       165       229       139       166       230
 -1         9    4    0EL   
 -2        59       109       228       196        57       113       234       200       108       226
 -2       227       197        58       111       231       198       112       232       233       201
 -1        10    4    0EL   
 -2       109        36       138       228       113        38       142       234       110       137
 -2       229       226       111        37       140       231       114       141       235       232
 -1        11    4    0EL   
 -2       196       228       167        81       200       234       171        83       227       230
 -2       168       195       198       231       169        82       233       236       172       199
 -1        12    4    0EL   
 -2       228       138        66       167       234       142        68       171       229       139
 -2       166       230       231       140        67       169       235       143       170       236
 -1        13    4    0EL   
 -2        57       113       234       200        55       117       240       204       112       232
 -2       233       201        56       115       237       202       116       238       239       205
 -1        14    4    0EL   
 -2       113        38       142       234       117        40       146       240       114       141
 -2       235       232       115        39       144       237       118       145       241       238
 -1        15    4    0EL   
 -2       200       234       171        83       204       240       175        85       233       236
 -2       172       199       202       237       173        84       239       242       176       203
 -1        16    4    0EL   
 -2       234       142        68       171       240       146        70       175       235       143
 -2       170       236       237       144        69       173       241       147       174       242
 -1        17    4    0EL   
 -2       274       297       362       345       272       301       368       349       296       360
 -2       361       346       273       299       365       347       300       366       367       350
 -1        18    4    0EL   
 -2       297       259       313       362       301       261       317       368       298       312
 -2       363       360       299       260       315       365       302       316       369       366
 -1        19    4    0EL   
 -2       345       362       329       283       349       368       333       285       361       364
 -2       330       344       347       365       331       284       367       370       334       348
 -1        20    4    0EL   
 -2       362       313       275       329       368       317       277       333       363       314
 -2       328       364       365       315       276       331       369       318       332       370
 -1        21    4    0EL   
 -2       272       301       368       349       270       305       374       353       300       366
 -2       367       350       271       303       371       351       304       372       373       354
 -1        22    4    0EL   
 -2       301       261       317       368       305       263       321       374       302       316
 -2       369       366       303       262       319       371       306       320       375       372
 -1        23    4    0EL   
 -2       349       368       333       285       353       374       337       287       367       370
 -2       334       348       351       371       335       286       373       376       338       352
 -1        24    4    0EL   
 -2       368       317       277       333       374       321       279       337       369       318
 -2       332       370       371       319       278       335       375       322       336       376
 -1        25    4    0EL   
 -2       270       305       374       353       268       309       380       357       304       372
 -2       373       354       269       307       377       355       308       378       379       358
 -1        26    4    0EL   
 -2       305       263       321       374       309       265       325       380       306       320
 -2       375       372       307       264       323       377       310       324       381       378
 -1        27    4    0EL   
 -2       353       374       337       287       357       380       341       289       373       376
 -2       338       352       355       377       339       288       379       382       342       356
 -1        28    4    0EL   
 -2       374       321       279       337       380       325       281       341       375       322
 -2       336       376       377       323       280       339       381       326       340       382
 -1        29    4    0EL   
 -2       268       309       380       357       243       248       293       257       308       378
 -2       379       358       267       311       383       359       247       291       292       258
 -1        30    4    0EL   
 -2       309       265       325       380       248       244       251       293       310       324
 -2       381       378       311       266       327       383       249       250       294       291
 -1        31    4    0EL   
 -2       357       380       341       289       257       293       254       246       379       382
 -2       342       356       359       383       343       290       292       295       255       256
 -1        32    4    0EL   
 -2       380       325       281       341       293       251       245       254       381       326
 -2       340       382       383       327       282       343       294       252       253       295
 -3
    1PSTEP                         1           1           1          
  100CL  101 1.00000E+00         282                     0    1           1
 -4  DISP        4    1
 -5  D1          1    2    1    0
 -5  D2          1    2    2    0
 -5  D3          1    2    3    0
 -5  ALL         1    2    0    0    1ALL
 -1         1 0.00000E+00 0.00000E+00 0.00000E+00
 -1         2 0.00000E+00 0.00000E+00 0.00000E+00
 -1         3 0.00000E+00 0.00000E+00 0.00000E+00
 -1         4 0.00000E+00 0.00000E+00 0.00000E+00
 -1         9 0.00000E+00 0.00000E+00 0.00000E+00
 -1        10 0.00000E+00 0.00000E+00 0.00000E+00
 -1        11 0.00000E+00 0.00000E+00 0.00000E+00
 -1        12 0.00000E+00 0.00000E+00 0.00000E+00
 -1        13 0.00000E+00 0.00000E+00 0.00000E+00
 -1        14 0.00000E+00 0.00000E+00 0.00000E+00
 -1        15 0.00000E+00 0.00000E+00 0.00000E+00
 -1        16 0.00000E+00 0.00000E+00 0.00000E+00
 -1        17 0.00000E+00 0.00000E+00 0.00000E+00
 -1        18 0.00000E+00 0.00000E+00 0.00000E+00
 -1        19 0.00000E+00 0.00000E+00 0.00000E+00
 -1        20 0.00000E+00 0.00000E+00 0.00000E+00
 -1        33 8.14486E-04-8.14486E-04-1.95848E-04
 -1        34 6.11865E-04-6.11865E-04-3.63700E-04
 -1        35 7.48332E-04-7.48332E-04-6.75210E-04
 -1        36 7.16970E-04-7.16970E-04-9.33562E-04
 -1        37 7.34544E-04-7.34544E-04-1.21905E-03
 -1        38 7.66018E-04-7.66018E-04-1.48443E-03
 -1        39 6.96847E-04-6.96847E-04-1.84778E-03
 -1        40 9.79969E-04-9.79969E-04-2.32987E-03
 -1        55-9.79969E-04-9.79969E-04-2.32987E-03
 -1        56-6.96847E-04-6.96847E-04-1.84778E-03
 -1        57-7.66018E-04-7.66018E-04-1.48443E-03
 -1        58-7.34544E-04-7.34544E-04-1.21905E-03
 -1        59-7.16970E-04-7.16970E-04-9.33562E-04
 -1        60-7.48332E-04-7.48332E-04-6.75210E-04
 -1        61-6.11865E-04-6.11865E-04-3.63700E-04
 -1        62-8.14486E-04-8.14486E-04-1.95848E-04
 -1        63 8.14486E-04 8.14486E-04-1.95848E-04
 -1        64 6.11865E-04 6.11865E-04-3.63700E-04
 -1        65 7.48332E-04 7.48332E-04-6.75210E-04
 -1        66 7.16970E-04 7.16970E-04-9.33562E-04
 -1        67 7.34544E-04 7.34544E-04-1.21905E-03
 -1        68 7.66018E-04 7.66018E-04-1.48443E-03
 -1        69 6.96847E-04 6.96847E-04-1.84778E-03
 -1        70 9.79969E-04 9.79969E-04-2.32987E-03
 -1        78-8.14486E-04 8.14486E-04-1.95848E-04
 -1        79-6.11865E-04 6.11865E-04-3.63700E-04
 -1        80-7.48332E-04 7.48332E-04-6.75210E-04
 -1        81-7.16970E-04 7.16970E-04-9.33562E-04
 -1        82-7.34544E-04 7.34544E-04-1.21905E-03
 -1        83-7.66018E-04 7.66018E-04-1.48443E-03
 -1        84-6.96847E-04 6.96847E-04-1.84778E-03
 -1        85-9.79969E-04 9.79969E-04-2.32987E-03
 -1        93 0.00000E+00 0.00000E+00 0.00000E+00
 -1        94 0.00000E+00 0.00000E+00 0.00000E+00
 -1        95 0.00000E+00 0.00000E+00 0.00000E+00
 -1        96 0.00000E+00 0.00000E+00 0.00000E+00
 -1        97 0.00000E+00 0.00000E+00 0.00000E+00
 -1       103-7.54522E-18-8.15545E-04-7.71461E-05
 -1       104-3.07952E-04-6.24900E-04-3.84171E-04
 -1       105-3.25583E-17-6.40485E-04-4.17392E-04
 -1       106 3.07952E-04-6.24900E-04-3.84171E-04
 -1       107-6.44660E-17-7.35468E-04-6.63295E-04
 -1       108-3.58369E-04-7.26087E-04-9.40142E-04
 -1       109-1.04221E-16-7.35091E-04-9.52276E-04
 -1       110 3.58369E-04-7.26087E-04-9.40142E-04
 -1       111-1.35322E-16-7.30501E-04-1.21429E-03
 -1       112-3.79556E-04-7.74442E-04-1.50185E-03
 -1       113-1.63449E-16-7.81496E-04-1.49717E-03
 -1       114 3.79556E-04-7.74442E-04-1.50185E-03
 -1       115-1.82171E-16-6.75881E-04-1.78827E-03
 -1       116-4.89719E-04-9.83341E-04-2.20300E-03
 -1       117-1.92166E-16-9.86586E-04-2.17301E-03
 -1       118 4.89719E-04-9.83341E-04-2.20300E-03
 -1       132 8.15545E-04-5.20417E-18-7.71461E-05
 -1       133 6.24900E-04-3.07952E-04-3.84171E-04
 -1       134 6.40485E-04-2.11055E-17-4.17392E-04
 -1       135 6.24900E-04 3.07952E-04-3.84171E-04
 -1       136 7.35468E-04-4.02070E-17-6.63295E-04
 -1       137 7.26087E-04-3.58369E-04-9.40142E-04
 -1       138 7.35091E-04-6.44173E-17-9.52276E-04
 -1       139 7.26087E-04 3.58369E-04-9.40142E-04
 -1       140 7.30501E-04-8.56249E-17-1.21429E-03
 -1       141 7.74442E-04-3.79556E-04-1.50185E-03
 -1       142 7.81496E-04-1.09010E-16-1.49717E-03
 -1       143 7.74442E-04 3.79556E-04-1.50185E-03
 -1       144 6.75881E-04-1.24887E-16-1.78827E-03
 -1       145 9.83341E-04-4.89719E-04-2.20300E-03
 -1       146 9.86586E-04-1.31812E-16-2.17301E-03
 -1       147 9.83341E-04 4.89719E-04-2.20300E-03
 -1       161-7.93112E-18 8.15545E-04-7.71461E-05
 -1       162 3.07952E-04 6.24900E-04-3.84171E-04
 -1       163-3.31495E-17 6.40485E-04-4.17392E-04
 -1       164-3.07952E-04 6.24900E-04-3.84171E-04
 -1       165-6.29179E-17 7.35468E-04-6.63295E-04
 -1       166 3.58369E-04 7.26087E-04-9.40142E-04
 -1       167-9.93332E-17 7.35091E-04-9.52276E-04
 -1       168-3.58369E-04 7.26087E-04-9.40142E-04
 -1       169-1.29690E-16 7.30501E-04-1.21429E-03
 -1       170 3.79556E-04 7.74442E-04-1.50185E-03
 -1       171-1.58294E-16 7.81496E-04-1.49717E-03
 -1       172-3.79556E-04 7.74442E-04-1.50185E-03
 -1       173-1.79137E-16 6.75881E-04-1.78827E-03
 -1       174 4.89719E-04 9.83341E-04-2.20300E-03
 -1       175-1.91213E-16 9.86586E-04-2.17301E-03
 -1       176-4.89719E-04 9.83341E-04-2.20300E-03
 -1       190-8.15545E-04-5.41379E-18-7.71461E-05
 -1       191-6.24900E-04 3.07952E-04-3.84171E-04
 -1       192-6.40485E-04-2.19724E-17-4.17392E-04
 -1       193-6.24900E-04-3.07952E-04-3.84171E-04
 -1       194-7.35468E-04-3.88779E-17-6.63295E-04
 -1       195-7.26087E-04 3.58369E-04-9.40142E-04
 -1       196-7.35091E-04-5.98547E-17-9.52276E-04
 -1       197-7.26087E-04-3.58369E-04-9.40142E-04
 -1       198-7.30501E-04-8.14778E-17-1.21429E-03
 -1       199-7.74442E-04 3.79556E-04-1.50185E-03
 -1       200-7.81496E-04-1.02932E-16-1.49717E-03
 -1       201-7.74442E-04-3.79556E-04-1.50185E-03
 -1       202-6.75881E-04-1.22384E-16-1.78827E-03
 -1       203-9.83341E-04 4.89719E-04-2.20300E-03
 -1       204-9.86586E-04-1.31273E-16-2.17301E-03
 -1       205-9.83341E-04-4.89719E-04-2.20300E-03
 -1       219-9.49826E-18-6.52325E-18 4.76208E-05
 -1       220-3.30284E-17-3.20465E-04-4.42462E-04
 -1       221-3.20465E-04-2.13026E-17-4.42462E-04
 -1       222-3.19924E-17-2.15150E-17-4.78538E-04
 -1       223 3.20465E-04-2.14265E-17-4.42462E-04
 -1       224-3.28547E-17 3.20465E-04-4.42462E-04
 -1       225-6.43338E-17-4.02435E-17-6.52456E-04
 -1       226-1.01290E-16-3.67481E-04-9.55256E-04
 -1       227-3.67481E-04-6.14472E-17-9.55256E-04
 -1       228-9.89366E-17-6.23344E-17-9.66076E-04
 -1       229 3.67481E-04-6.29650E-17-9.55256E-04
 -1       230-9.88869E-17 3.67481E-04-9.55256E-04
 -1       231-1.31690E-16-8.38424E-17-1.20944E-03
 -1       232-1.60524E-16-3.88269E-04-1.51881E-03
 -1       233-3.88269E-04-1.04286E-16-1.51881E-03
 -1       234-1.58450E-16-1.05262E-16-1.51372E-03
 -1       235 3.88269E-04-1.06785E-16-1.51881E-03
 -1       236-1.58163E-16 3.88269E-04-1.51881E-03
 -1       237-1.79686E-16-1.22867E-16-1.73201E-03
 -1       238-1.89730E-16-4.93161E-04-2.03628E-03
 -1       239-4.93161E-04-1.29909E-16-2.03628E-03
 -1       240-1.89362E-16-1.30660E-16-2.00275E-03
 -1       241 4.93161E-04-1.30419E-16-2.03628E-03
 -1       242-1.90433E-16 4.93161E-04-2.03628E-03
 -1       243 0.00000E+00 0.00000E+00 0.00000E+00
 -1       244 0.00000E+00 0.00000E+00 0.00000E+00
 -1       245 0.00000E+00 0.00000E+00 0.00000E+00
 -1       246 0.00000E+00 0.00000E+00 0.00000E+00
 -1       247 0.00000E+00 0.00000E+00 0.00000E+00